#     Step Nr.          Time[fs]        Kin.[a.u.]          Temp[K]            Pot.[a.u.]        Cons Qty[a.u.]        UsedTime[s]
         0            0.000000         0.051302409       100.000000000     -2273.739349566     -2273.636744749         0.000000000
         1            1.000000         0.051264108        99.925343308     -2273.739301588     -2273.636744772        38.837980817
         2            2.000000         0.051225542        99.850170608     -2273.739253433     -2273.636744773         6.778089439
         3            3.000000         0.051186741        99.774538628     -2273.739205175     -2273.636744796         7.024574134
         4            4.000000         0.051147731        99.698497498     -2273.739156792     -2273.636744796         5.456808412
         5            5.000000         0.051108529        99.622085591     -2273.739108209     -2273.636744674         5.575544438
         6            6.000000         0.051069156        99.545337326     -2273.739059688     -2273.636744677         6.995149553
         7            7.000000         0.051029626        99.468284542     -2273.739011138     -2273.636744696         5.561824228
         8            8.000000         0.050989944        99.390936154     -2273.738962294     -2273.636744462         7.023566588
         9            9.000000         0.050950115        99.313300857     -2273.738913478     -2273.636744293         7.139095971
        10           10.000000         0.050910148        99.235395674     -2273.738865107     -2273.636744595         7.162591325
        11           11.000000         0.050870042        99.157219350     -2273.738816218     -2273.636744406         7.006037262
        12           12.000000         0.050829789        99.078758466     -2273.738767859     -2273.636744781         7.206685841
        13           13.000000         0.050789391        99.000012457     -2273.738719070     -2273.636744759         7.037204762
        14           14.000000         0.050748841        98.920971671     -2273.738670464     -2273.636744958         7.029510316
        15           15.000000         0.050708132        98.841621356     -2273.738621521     -2273.636744866         5.560053320
        16           16.000000         0.050667258        98.761948102     -2273.738572530     -2273.636744776         7.070928923
        17           17.000000         0.050626209        98.681934849     -2273.738523578     -2273.636744785         7.029257236
        18           18.000000         0.050584979        98.601567976     -2273.738474563     -2273.636744797         7.039666856
        19           19.000000         0.050543553        98.520818716     -2273.738425523     -2273.636744864         7.041991698
        20           20.000000         0.050501915        98.439657182     -2273.738376369     -2273.636744912         7.019229558
        21           21.000000         0.050460048        98.358047835     -2273.738327127     -2273.636744984         8.236666896
        22           22.000000         0.050417937        98.275964707     -2273.738277702     -2273.636744998         7.054731333
        23           23.000000         0.050375572        98.193385689     -2273.738228020     -2273.636744892         7.034328702
        24           24.000000         0.050332930        98.110267806     -2273.738178351     -2273.636744955         7.003757582
        25           25.000000         0.050289996        98.026579646     -2273.738128456     -2273.636744965         7.042530053
        26           26.000000         0.050246756        97.942294109     -2273.738078360     -2273.636744959         7.070978602
        27           27.000000         0.050203180        97.857354610     -2273.738027663     -2273.636744565         7.030314642
        28           28.000000         0.050159249        97.771722699     -2273.737977123     -2273.636744562         7.085993280
        29           29.000000         0.050114951        97.685377405     -2273.737926359     -2273.636744577         7.215450010
        30           30.000000         0.050070264        97.598270661     -2273.737875065     -2273.636744329         7.236499529
        31           31.000000         0.050025160        97.510353996     -2273.737823893     -2273.636744493         7.252399396
        32           32.000000         0.049979619        97.421584543     -2273.737771937     -2273.636744185         7.206716537
        33           33.000000         0.049933620        97.331921135     -2273.737719968     -2273.636744196         7.153351148
        34           34.000000         0.049887141        97.241323474     -2273.737667648     -2273.636744208         7.264898908
        35           35.000000         0.049840159        97.149745515     -2273.737614753     -2273.636744019         7.252777153
        36           36.000000         0.049792647        97.057133203     -2273.737562009     -2273.636744383         7.237515965
        37           37.000000         0.049744584        96.963446684     -2273.737508481     -2273.636744385         7.311501244
        38           38.000000         0.049695954        96.868656587     -2273.737454524     -2273.636744392         7.334196852
        39           39.000000         0.049646738        96.772724167     -2273.737400109     -2273.636744395         7.337441491
        40           40.000000         0.049596917        96.675611134     -2273.737344964     -2273.636744142         7.259114316
        41           41.000000         0.049546474        96.577286907     -2273.737289739     -2273.636744298         7.262433670
        42           42.000000         0.049495396        96.477724105     -2273.737234180     -2273.636744620         7.316512093
        43           43.000000         0.049443672        96.376901813     -2273.737177908     -2273.636744740         7.344913577
        44           44.000000         0.049391293        96.274803026     -2273.737120738     -2273.636744482         7.335925933
        45           45.000000         0.049338255        96.171420198     -2273.737063072     -2273.636744250         7.346878311
        46           46.000000         0.049284559        96.066754734     -2273.737005505     -2273.636744637         7.229515826
        47           47.000000         0.049230210        95.960816231     -2273.736947021     -2273.636744622         7.292246804
        48           48.000000         0.049175217        95.853623388     -2273.736888008     -2273.636744584         7.393557309
        49           49.000000         0.049119592        95.745196372     -2273.736828554     -2273.636744597         7.417396310
        50           50.000000         0.049063345        95.635559375     -2273.736768417     -2273.636744407         7.306303140
        51           51.000000         0.049006495        95.524744677     -2273.736707994     -2273.636744395         7.352210730
        52           52.000000         0.048949064        95.412798471     -2273.736647286     -2273.636744536         7.442575977
        53           53.000000         0.048891077        95.299769842     -2273.736586007     -2273.636744518         7.254178237
        54           54.000000         0.048832560        95.185707383     -2273.736524277     -2273.636744436         7.286318693
        55           55.000000         0.048773540        95.070662174     -2273.736462471     -2273.636744638         7.253028581
        56           56.000000         0.048714044        94.954691636     -2273.736400225     -2273.636744728         7.283978412
        57           57.000000         0.048654106        94.837859227     -2273.736337383     -2273.636744519         7.417115839
        58           58.000000         0.048593759        94.720229038     -2273.736274567     -2273.636744598         7.343343398
        59           59.000000         0.048533035        94.601863648     -2273.736211717     -2273.636744873         7.404155577
        60           60.000000         0.048471971        94.482836633     -2273.736148496     -2273.636744967         7.386605870
        61           61.000000         0.048410605        94.363220911     -2273.736085300     -2273.636745238         7.354270438
        62           62.000000         0.048348974        94.243087193     -2273.736021713     -2273.636745233         7.331505510
        63           63.000000         0.048287112        94.122505010     -2273.735957978     -2273.636745159         8.826781426
        64           64.000000         0.048225055        94.001541119     -2273.735894280     -2273.636745165         7.395011979
        65           65.000000         0.048162836        93.880261901     -2273.735830573     -2273.636745171         7.375155440
        66           66.000000         0.048100484        93.758725496     -2273.735767006     -2273.636745294         7.367800049
        67           67.000000         0.048038027        93.636982183     -2273.735703169     -2273.636745098         7.712053373
        68           68.000000         0.047975491        93.515084146     -2273.735639607     -2273.636745099         9.237312927
        69           69.000000         0.047912902        93.393085707     -2273.735576157     -2273.636745107         7.361495808
        70           70.000000         0.047850286        93.271032073     -2273.735512840     -2273.636745118         7.280904785
        71           71.000000         0.047787660        93.148959497     -2273.735449678     -2273.636745134         7.262737891
        72           72.000000         0.047725039        93.026897465     -2273.735386533     -2273.636745001         8.883504183
        73           73.000000         0.047662434        92.904867009     -2273.735323668     -2273.636744971         7.289477888
        74           74.000000         0.047599856        92.782888334     -2273.735261041     -2273.636744990         7.338222304
        75           75.000000         0.047537314        92.660979272     -2273.735198571     -2273.636744966         7.291529974
        76           76.000000         0.047474811        92.539146626     -2273.735136416     -2273.636745055         8.805394065
        77           77.000000         0.047412348        92.417392227     -2273.735074514     -2273.636745192         7.313226908
        78           78.000000         0.047349926        92.295717049     -2273.735012692     -2273.636745203         7.152277684
        79           79.000000         0.047287542        92.174117473     -2273.734951067     -2273.636745206         8.761415892
        80           80.000000         0.047225192        92.052582175     -2273.734889645     -2273.636745212         7.253640059
        81           81.000000         0.047162865        91.931092178     -2273.734828566     -2273.636745370         7.263506042
        82           82.000000         0.047100549        91.809625215     -2273.734767548     -2273.636745408         7.345579507
        83           83.000000         0.047038231        91.688154168     -2273.734706853     -2273.636745605         8.870924552
        84           84.000000         0.046975895        91.566646899     -2273.734646124     -2273.636745615         7.253904338
        85           85.000000         0.046913523        91.445069006     -2273.734585514     -2273.636745613         7.287011415
        86           86.000000         0.046851090        91.323373539     -2273.734525248     -2273.636745846         7.311197801
        87           87.000000         0.046788574        91.201515968     -2273.734464810     -2273.636745819         8.995763224
        88           88.000000         0.046725952        91.079451806     -2273.734404315     -2273.636745672         7.281855769
        89           89.000000         0.046663201        90.957135704     -2273.734343969     -2273.636745634         7.324588284
        90           90.000000         0.046600302        90.834530137     -2273.734283691     -2273.636745644         8.908296906
        91           91.000000         0.046537230        90.711589945     -2273.734223361     -2273.636745605         7.483504870
        92           92.000000         0.046473966        90.588274096     -2273.734163016     -2273.636745574         7.297893098
        93           93.000000         0.046410493        90.464550045     -2273.734102663     -2273.636745576         8.875975227
        94           94.000000         0.046346794        90.340386512     -2273.734042258     -2273.636745585         7.275757354
        95           95.000000         0.046282855        90.215755019     -2273.733981607     -2273.636745421         7.205088095
        96           96.000000         0.046218666        90.090634907     -2273.733921003     -2273.636745388         7.221092877
        97           97.000000         0.046154220        89.965016534     -2273.733860346     -2273.636745393         8.793859612
        98           98.000000         0.046089518        89.838896721     -2273.733799619     -2273.636745422         7.225448009
        99           99.000000         0.046024556        89.712272037     -2273.733738662     -2273.636745316         7.344034993
       100          100.000000         0.045959342        89.585153727     -2273.733677719     -2273.636745316         7.251027196
