     108
 i =        0, time =        0.000, E =     -2273.7393495660
 Ar        -8.5386901295      -15.5816257771        2.8566367230
 Ar         1.5300730483        9.2852817904       11.1777824543
 Ar        11.9910225120       -7.4882532957       -9.9654530635
 Ar       -12.6782400030       -3.3410587201        4.0747109782
 Ar        -1.7704625428       -0.2324594643       13.2012946017
 Ar         8.0176137119       -2.5724958773       -4.1272055475
 Ar         8.5784951723        4.0139666462        5.5736882198
 Ar        -3.8920067928      -10.2930917801       -6.9864023229
 Ar        -3.3545716056      -16.1119619277       16.1358515626
 Ar         9.7895715510      -16.2628264195       -5.6979085707
 Ar         0.5051434954       -4.2297841576       12.4854171634
 Ar        15.5632243940       -7.9804890509        2.2099470855
 Ar        -5.4074164400       -2.6476445711       -0.6814852126
 Ar        -0.0983719068       -1.7367400486       -7.1191554512
 Ar         7.5265578133       -5.5296996967      -12.8886150439
 Ar        -5.4565541100        0.5644457544        2.0390251010
 Ar       -11.8590998267        3.4040744639        3.7268793393
 Ar        16.7175362589       -7.4713237735       -1.0227447667
 Ar       -20.4572129717       -5.7370080772        4.8184508638
 Ar        14.8485522289       -1.4160863305      -16.0839111491
 Ar         8.0437947051       -8.1403381484       -4.7554312381
 Ar        12.2738439612       -1.7058983467       12.9622486200
 Ar        -0.4218518064      -11.1177490353       20.4545363333
 Ar         2.2819434170        5.9208391754      -11.1732449878
 Ar       -13.9648466918        8.7792388576        8.0737337048
 Ar       -10.3147439499        6.3852956124      -15.3411964215
 Ar        -2.7189996465      -21.4890074469       10.8678096819
 Ar       -17.7923879123      -10.7840901151       -4.8395499652
 Ar         5.2349413851       -6.7922290679       -6.0718769081
 Ar         3.5244875064      -10.1225951872        2.9682904866
 Ar       -16.1586602902       -5.1827431639        8.5707269408
 Ar        -5.8098282442        4.3264019350        2.5559910187
 Ar         6.2916010908       27.5741337288       15.0246410590
 Ar        -3.1874171171       23.2996469100      -16.8034854143
 Ar        -4.2022575504        9.3603772594       16.5891306155
 Ar        -7.6439290875       -9.5243238441      -29.8228731471
 Ar         0.5453525258       13.9240554617       -0.3837867803
 Ar        -5.2743288681       -5.5381378179      -20.3014703747
 Ar        22.9921850153        6.7861937167       -1.9828990529
 Ar        19.7720034229      -10.2373337687       -3.3308181857
 Ar         0.1567769029        6.5963011811        8.9074906251
 Ar         5.5793738186        0.2331062231        1.0275228782
 Ar        -3.6434356180        3.9644888101       25.8752124557
 Ar        -0.2484916981       20.4489725648       -2.5122044535
 Ar         2.9362670860        0.8598122134        9.9674330724
 Ar         3.3038431569       -2.9242126659       -6.3492704237
 Ar        -6.1549023524       -6.8496148008       -6.4620414461
 Ar       -23.2388291762      -28.1213094673        7.1372104719
 Ar         4.1152629133        2.7156414337       -0.8520300437
 Ar        14.6194148692        2.8081518226        1.9360197598
 Ar        18.9667954753       16.5700888519       13.3423444868
 Ar       -28.6124161417        2.8435363708       -9.2360197333
 Ar        -5.9700459456      -16.2230172568       -9.2292806184
 Ar        10.0481077883       16.3854819570        5.1257871135
 Ar        -7.2250850783        6.3461542223       -0.6807574637
 Ar       -12.0138912984      -10.4653110277       -6.4343478758
 Ar        -8.5316992690       12.8976589213       -0.8903612524
 Ar       -25.3700692951        3.3311990643       -7.9391768568
 Ar         2.9016348064      -12.9668181360       -7.9490775926
 Ar       -13.5963940986       11.9896580952       -3.5506875487
 Ar        13.1416029517        4.9714378345       -3.5084125273
 Ar       -13.3295460956       16.0410015778        7.0528279758
 Ar        -4.1506833549      -19.5111913798       21.0255971828
 Ar        -8.4294427082       16.3065160594      -18.2887817285
 Ar         0.7886363339        9.5901683682       22.1772606194
 Ar        -2.9260677863       -7.9740805489      -21.3519900334
 Ar        -6.3995986598       -4.5628046180        2.7553357109
 Ar        -4.0442387809      -14.9275965394       -5.5856147374
 Ar       -27.8524912514        0.8020521807       -3.0266378971
 Ar        -2.8396652965        7.1162712125        6.1854733276
 Ar        -8.6832788761       -6.6708830049       -9.1581545022
 Ar       -11.9620847111       -2.2095624961       -1.8397997537
 Ar        22.6848553724       12.2047209420        1.0123879784
 Ar         6.2950101204       -0.7697124713       -6.9145433225
 Ar         3.4999554679       -8.0070492014       -0.4265266319
 Ar         0.3851548123       17.8769740351      -17.4065226240
 Ar        21.2288869131       10.2327102036      -13.0872200859
 Ar         1.2208258700        5.8359743507       16.8450099267
 Ar        -7.0875403622        6.0341297186      -22.3251445580
 Ar        -0.0244265849       17.4693605251        7.3711673097
 Ar        15.0981822679        9.8894051625       -8.4938274014
 Ar        -6.5787768834      -15.0484532075       14.7230359830
 Ar        -2.2266666663       -4.1842190033       -2.4700788711
 Ar         5.2062106985      -22.6565181989        7.3947567481
 Ar        -8.8582880041       -2.4751066199        2.3544139853
 Ar         6.7520235454        0.4303913836        5.4349249526
 Ar        11.9263127546        8.1326725415        2.4008113296
 Ar       -14.5507562394       -0.4715406772      -13.7058431105
 Ar        14.1157692422       -2.9896859318       24.6842798176
 Ar        -3.3510733620       -0.6813625467       -7.3703991683
 Ar         7.7926987644        3.3068761509       -0.0732378021
 Ar        -1.1328905910      -17.1672835836      -12.9126466372
 Ar        -9.2105434952      -10.4846510043       -8.3848579779
 Ar        -6.4784877796       -3.9073665308      -10.6499668410
 Ar         0.9878749792       13.7363585341        5.0720965980
 Ar         8.8609781479        9.9610388779        1.0937379580
 Ar        -6.5806876684      -20.4019345282       -7.2893560818
 Ar        -0.4489770627       19.5862520160       11.0351198969
 Ar         7.3605693747       -2.6959428168        7.2608187460
 Ar        13.8791344547       12.1903465249        1.2488988544
 Ar        -3.6578275372       19.7829061762      -11.8161510230
 Ar         1.4972945094       -5.3928997725        1.9244584967
 Ar        18.5861605634        3.0086836640        2.0644013101
 Ar         6.2073076798       -9.4741839882        5.5493050775
 Ar         3.6505483789        3.4318105413       -4.3116081362
 Ar         2.6786261646        2.2930060515        5.9850296215
 Ar        24.5113122275        4.0073317098       13.1412501215
 Ar        -0.6002332620        3.6282563137        6.3841128472
     108
 i =        1, time =        1.000, E =     -2273.7393015881
 Ar        -8.5408531273      -15.5817398683        2.8587018559
 Ar         1.5297261369        9.2838202144       11.1766242878
 Ar        11.9942672401       -7.4877835367       -9.9647011058
 Ar       -12.6793287365       -3.3394749519        4.0745967520
 Ar        -1.7712775354       -0.2300766594       13.2033165896
 Ar         8.0177859347       -2.5739104360       -4.1247252720
 Ar         8.5764600885        4.0139077818        5.5737673626
 Ar        -3.8923714284      -10.2936614729       -6.9879563653
 Ar        -3.3528806448      -16.1125009654       16.1349082269
 Ar         9.7916779541      -16.2617404073       -5.6954360932
 Ar         0.5065185400       -4.2303748151       12.4851601905
 Ar        15.5628809721       -7.9821958568        2.2107238910
 Ar        -5.4066702559       -2.6478717474       -0.6802271145
 Ar        -0.0997589701       -1.7377083128       -7.1227150121
 Ar         7.5271151835       -5.5302722306      -12.8866980539
 Ar        -5.4562972214        0.5634203645        2.0387480194
 Ar       -11.8600861248        3.4049474138        3.7279225523
 Ar        16.7187341167       -7.4715209414       -1.0229754246
 Ar       -20.4584046302       -5.7369351508        4.8182888808
 Ar        14.8472287717       -1.4182252072      -16.0877923330
 Ar         8.0456291562       -8.1389473319       -4.7552437575
 Ar        12.2740316796       -1.7081974724       12.9599273063
 Ar        -0.4242567415      -11.1195336873       20.4552238279
 Ar         2.2823862253        5.9228614959      -11.1733644119
 Ar       -13.9626655351        8.7788337770        8.0740568840
 Ar       -10.3160201851        6.3817581656      -15.3426678078
 Ar        -2.7189395640      -21.4887787265       10.8690035585
 Ar       -17.7906179483      -10.7829595979       -4.8411646120
 Ar         5.2386029649       -6.7943516321       -6.0709223435
 Ar         3.5237220940      -10.1219049555        2.9665350433
 Ar       -16.1582768455       -5.1833780288        8.5673702522
 Ar        -5.8105035759        4.3266975964        2.5563851708
 Ar         6.2921590369       27.5721145058       15.0262896799
 Ar        -3.1885440649       23.3008231211      -16.8024095362
 Ar        -4.2025489612        9.3590495380       16.5908592166
 Ar        -7.6452072335       -9.5257653210      -29.8213584319
 Ar         0.5440258680       13.9253469907       -0.3815837767
 Ar        -5.2720697969       -5.5403698168      -20.3012023012
 Ar        22.9905795722        6.7869362831       -1.9839281198
 Ar        19.7715716557      -10.2365376033       -3.3324396535
 Ar         0.1595054629        6.5967598996        8.9105281019
 Ar         5.5778984823        0.2317031248        1.0272186134
 Ar        -3.6425837365        3.9680090509       25.8737596570
 Ar        -0.2488714475       20.4517694029       -2.5116785671
 Ar         2.9370429014        0.8612367511        9.9701418813
 Ar         3.3023205565       -2.9251998991       -6.3500144033
 Ar        -6.1554475135       -6.8488868169       -6.4613149455
 Ar       -23.2406188312      -28.1215499925        7.1387969960
 Ar         4.1173654327        2.7157222048       -0.8533118030
 Ar        14.6168253281        2.8089457378        1.9350268364
 Ar        18.9638156978       16.5701435737       13.3427635678
 Ar       -28.6120708207        2.8445653145       -9.2368364112
 Ar        -5.9713526595      -16.2221127225       -9.2292075553
 Ar        10.0483621797       16.3842168102        5.1272184732
 Ar        -7.2226356625        6.3477316121       -0.6799162365
 Ar       -12.0132490624      -10.4667126488       -6.4332855335
 Ar        -8.5294931124       12.8974557688       -0.8913887511
 Ar       -25.3688655379        3.3321472846       -7.9411992085
 Ar         2.9021336834      -12.9655277799       -7.9499181806
 Ar       -13.5978922213       11.9900686677       -3.5484303784
 Ar        13.1405297732        4.9713837422       -3.5075426107
 Ar       -13.3294793635       16.0391970533        7.0521050592
 Ar        -4.1496643702      -19.5113524259       21.0249453635
 Ar        -8.4280367129       16.3070662383      -18.2878559354
 Ar         0.7882956420        9.5875162507       22.1770261914
 Ar        -2.9252074937       -7.9737573010      -21.3511524174
 Ar        -6.4003163620       -4.5619454969        2.7543778172
 Ar        -4.0412169147      -14.9266144199       -5.5847311016
 Ar       -27.8540197455        0.8043374871       -3.0238901556
 Ar        -2.8392183793        7.1167511458        6.1853363392
 Ar        -8.6851025992       -6.6680264101       -9.1599287434
 Ar       -11.9648703248       -2.2110350975       -1.8394635954
 Ar        22.6832959739       12.2055368824        1.0113025156
 Ar         6.2957569623       -0.7677687496       -6.9150000401
 Ar         3.5006303496       -8.0065051537       -0.4264553057
 Ar         0.3844836620       17.8779592004      -17.4068424312
 Ar        21.2275111294       10.2336264723      -13.0864305516
 Ar         1.2203623846        5.8339430549       16.8449958490
 Ar        -7.0865544152        6.0344718759      -22.3221239162
 Ar        -0.0239996763       17.4682601292        7.3721788145
 Ar        15.0998495891        9.8892545466       -8.4960670105
 Ar        -6.5782578476      -15.0476093718       14.7229106973
 Ar        -2.2256703278       -4.1822348636       -2.4709561519
 Ar         5.2082600029      -22.6554261648        7.3914620458
 Ar        -8.8581442204       -2.4743140380        2.3540851474
 Ar         6.7510344056        0.4281784143        5.4342229438
 Ar        11.9236913464        8.1333966223        2.4005425195
 Ar       -14.5491645168       -0.4727760653      -13.7070115350
 Ar        14.1173771237       -2.9886680583       24.6850957940
 Ar        -3.3504558480       -0.6813796246       -7.3678524982
 Ar         7.7940302965        3.3062961392       -0.0726346004
 Ar        -1.1354516724      -17.1677813199      -12.9123781774
 Ar        -9.2111602360      -10.4849466800       -8.3831522475
 Ar        -6.4790300491       -3.9096979858      -10.6505185613
 Ar         0.9876429694       13.7339996422        5.0705799951
 Ar         8.8607472854        9.9617235666        1.0935124863
 Ar        -6.5823604287      -20.3992296157       -7.2896795183
 Ar        -0.4481984444       19.5871795242       11.0320612637
 Ar         7.3608697260       -2.6970240881        7.2600472553
 Ar        13.8801096434       12.1911610453        1.2505683141
 Ar        -3.6569939813       19.7854681421      -11.8185803531
 Ar         1.4966779713       -5.3937024701        1.9221066918
 Ar        18.5871477099        3.0090987079        2.0658271399
 Ar         6.2073087289       -9.4765187178        5.5497358541
 Ar         3.6504148298        3.4301073217       -4.3126461313
 Ar         2.6792601417        2.2930453944        5.9835251395
 Ar        24.5093550218        4.0074434383       13.1441171947
 Ar        -0.6018210356        3.6271715228        6.3826000986
     108
 i =        2, time =        2.000, E =     -2273.7392534329
 Ar        -8.5430194477      -15.5818475187        2.8607650322
 Ar         1.5293851192        9.2823610751       11.1754669741
 Ar        11.9975029075       -7.4873174811       -9.9639424539
 Ar       -12.6804155574       -3.3378943077        4.0744901982
 Ar        -1.7720900864       -0.2276852623       13.2053347078
 Ar         8.0179582686       -2.5753165532       -4.1222435271
 Ar         8.5744214510        4.0138519882        5.5738474292
 Ar        -3.8927349585      -10.2942053115       -6.9895030793
 Ar        -3.3511874662      -16.1130386986       16.1339611919
 Ar         9.7937882739      -16.2606596942       -5.6929547349
 Ar         0.5078851843       -4.2309579063       12.4848950478
 Ar        15.5625311793       -7.9838965942        2.2114997534
 Ar        -5.4059145381       -2.6481030175       -0.6789710947
 Ar        -0.1011446817       -1.7386850066       -7.1262599867
 Ar         7.5276712720       -5.5308426587      -12.8847806027
 Ar        -5.4560261248        0.5623911010        2.0384726621
 Ar       -11.8610680261        3.4058175072        3.7289670475
 Ar        16.7199303356       -7.4717156759       -1.0232045363
 Ar       -20.4595992892       -5.7368606447        4.8181226107
 Ar        14.8459067903       -1.4203656343      -16.0916744058
 Ar         8.0474718855       -8.1375696847       -4.7550581180
 Ar        12.2742143678       -1.7105008957       12.9576062300
 Ar        -0.4266573923      -11.1213193943       20.4559111208
 Ar         2.2828214764        5.9248796021      -11.1734802897
 Ar       -13.9604847282        8.7784263550        8.0743820412
 Ar       -10.3172941110        6.3782208614      -15.3441374248
 Ar        -2.7188805848      -21.4885500602       10.8701993027
 Ar       -17.7888538177      -10.7818254063       -4.8427781724
 Ar         5.2422590725       -6.7964758981       -6.0699803159
 Ar         3.5229610763      -10.1212218741        2.9647784880
 Ar       -16.1578920532       -5.1840151833        8.5640171843
 Ar        -5.8111820940        4.3269958050        2.5567790581
 Ar         6.2927184223       27.5700977997       15.0279435217
 Ar        -3.1896733599       23.3019964981      -16.8013254221
 Ar        -4.2028278766        9.3577223185       16.5925748766
 Ar        -7.6465054105       -9.5272128175      -29.8198364621
 Ar         0.5426852403       13.9266474345       -0.3793973387
 Ar        -5.2698170796       -5.5426025130      -20.3009349190
 Ar        22.9889786900        6.7876758162       -1.9849558454
 Ar        19.7711425054      -10.2357393107       -3.3340618526
 Ar         0.1622342052        6.5972214787        8.9135620429
 Ar         5.5764335972        0.2302952587        1.0269147852
 Ar        -3.6417241302        3.9715117712       25.8722853302
 Ar        -0.2492499858       20.4545677015       -2.5111566456
 Ar         2.9378186665        0.8626512401        9.9728479039
 Ar         3.3007911379       -2.9261854691       -6.3507647262
 Ar        -6.1559879980       -6.8481589129       -6.4605877464
 Ar       -23.2424091165      -28.1217989238        7.1403922077
 Ar         4.1194704646        2.7158048630       -0.8545950397
 Ar        14.6142365705        2.8097335577        1.9340342769
 Ar        18.9608359541       16.5701935586       13.3431724987
 Ar       -28.6117206939        2.8455846680       -9.2376665358
 Ar        -5.9726500633      -16.2211994781       -9.2291323033
 Ar        10.0486175655       16.3829546076        5.1286406563
 Ar        -7.2201908331        6.3493117888       -0.6790679498
 Ar       -12.0126155266      -10.4681086548       -6.4322164934
 Ar        -8.5272878857       12.8972512978       -0.8924142968
 Ar       -25.3676571071        3.3331019364       -7.9432221354
 Ar         2.9026258397      -12.9642293260       -7.9507531641
 Ar       -13.5993853463       11.9904816398       -3.5461720469
 Ar        13.1394549032        4.9713372057       -3.5066781372
 Ar       -13.3294077140       16.0373973258        7.0513753026
 Ar        -4.1486412325      -19.5115105791       21.0243021725
 Ar        -8.4266295824       16.3076211888      -18.2869218220
 Ar         0.7879501426        9.5848631355       22.1767877519
 Ar        -2.9243516370       -7.9734312327      -21.3503122048
 Ar        -6.4010311690       -4.5611053457        2.7534178762
 Ar        -4.0382003953      -14.9256469665       -5.5838365569
 Ar       -27.8555550892        0.8066242091       -3.0211431662
 Ar        -2.8387638923        7.1172282688        6.1852036227
 Ar        -8.6869252533       -6.6651710374       -9.1617087385
 Ar       -11.9676477541       -2.2125083762       -1.8391254927
 Ar        22.6817426714       12.2063454314        1.0102182301
 Ar         6.2965012131       -0.7658238432       -6.9154601562
 Ar         3.5013045550       -8.0059625511       -0.4263827547
 Ar         0.3838064905       17.8789359471      -17.4071637842
 Ar        21.2261428323       10.2345495513      -13.0856358039
 Ar         1.2199015778        5.8319121363       16.8449862625
 Ar        -7.0855658315        6.0348142935      -22.3191089673
 Ar        -0.0235653336       17.4671677971        7.3731941204
 Ar        15.1015181948        9.8890988181       -8.4982991447
 Ar        -6.5777403442      -15.0467621790       14.7227817020
 Ar        -2.2246694730       -4.1802444387       -2.4718292660
 Ar         5.2103100290      -22.6543391135        7.3881587027
 Ar        -8.8580181588       -2.4735032334        2.3537529929
 Ar         6.7500347880        0.4259638485        5.4335293391
 Ar        11.9210798657        8.1341225964        2.4002648220
 Ar       -14.5475727069       -0.4740011992      -13.7081706315
 Ar        14.1189857978       -2.9876712956       24.6858979750
 Ar        -3.3498426328       -0.6813874216       -7.3652826959
 Ar         7.7953621637        3.3057140420       -0.0720434333
 Ar        -1.1380193181      -17.1682788539      -12.9121279050
 Ar        -9.2117748686      -10.4852371072       -8.3814553280
 Ar        -6.4795650641       -3.9120342622      -10.6510839694
 Ar         0.9874194601       13.7316426194        5.0690587631
 Ar         8.8605153727        9.9624049024        1.0932906814
 Ar        -6.5840261760      -20.3965227933       -7.2899952549
 Ar        -0.4474161551       19.5881026502       11.0290011366
 Ar         7.3611682766       -2.6981051731        7.2592740259
 Ar        13.8810882704       12.1919786394        1.2522370653
 Ar        -3.6561642326       19.7880277402      -11.8210162037
 Ar         1.4960737887       -5.3945208198        1.9197675429
 Ar        18.5881351872        3.0095192538        2.0672615208
 Ar         6.2073017402       -9.4788532409        5.5501664786
 Ar         3.6502789677        3.4284069887       -4.3136889673
 Ar         2.6798976359        2.2930816399        5.9820216407
 Ar        24.5073949698        4.0075594751       13.1469866603
 Ar        -0.6034042577        3.6260919360        6.3810940867
     108
 i =        3, time =        3.000, E =     -2273.7392051747
 Ar        -8.5451888741      -15.5819487802        2.8628262772
 Ar         1.5290500026        9.2809045334       11.1743104709
 Ar        12.0007294231       -7.4868551655       -9.9631770361
 Ar       -12.6815002879       -3.3363169367        4.0743913303
 Ar        -1.7729002643       -0.2252853540       13.2073489635
 Ar         8.0181306993       -2.5767143039       -4.1197604525
 Ar         8.5723790476        4.0137993052        5.5739284261
 Ar        -3.8930974063      -10.2947228922       -6.9910421320
 Ar        -3.3494921291      -16.1135749579       16.1330105589
 Ar         9.7959024395      -16.2595841224       -5.6904645003
 Ar         0.5092432530       -4.2315333743       12.4846216865
 Ar        15.5621750219       -7.9855913240        2.2122745779
 Ar        -5.4051491972       -2.6483383607       -0.6777172607
 Ar        -0.1025288739       -1.7396705199       -7.1297903899
 Ar         7.5282260561       -5.5314109119      -12.8828624826
 Ar        -5.4557410808        0.5613579782        2.0381990587
 Ar       -11.8620454335        3.4066848063        3.7300128821
 Ar        16.7211248367       -7.4719080082       -1.0234320060
 Ar       -20.4607968478       -5.7367845230        4.8179520221
 Ar        14.8445862496       -1.4225078746      -16.0955571641
 Ar         8.0493231610       -8.1362053608       -4.7548741939
 Ar        12.2743921039       -1.7128087639       12.9552855553
 Ar        -0.4290536063      -11.1231062991       20.4565982060
 Ar         2.2832491965        5.9268933942      -11.1735926591
 Ar       -13.9583041491        8.7780166388        8.0747091743
 Ar       -10.3185658510        6.3746837886      -15.3456051824
 Ar        -2.7188227091      -21.4883214371       10.8713969817
 Ar       -17.7870955327      -10.7806875672       -4.8443905764
 Ar         5.2459093778       -6.7986017014       -6.0690506994
 Ar         3.5222044856      -10.1205459344        2.9630209647
 Ar       -16.1575059381       -5.1846546544        8.5606673864
 Ar        -5.8118637884        4.3272965935        2.5571727040
 Ar         6.2932792718       27.5680838739       15.0296023188
 Ar        -3.1908050464       23.3031668488      -16.8002330509
 Ar        -4.2030942636        9.3563957881       16.5942776082
 Ar        -7.6478235462       -9.5286663426      -29.8183073754
 Ar         0.5413305525       13.9279568592       -0.3772276774
 Ar        -5.2675708390       -5.5448357416      -20.3006681858
 Ar        22.9873824762        6.7884122766       -1.9859822740
 Ar        19.7707159406      -10.2349389369       -3.3356846909
 Ar         0.1649630211        6.5976859659        8.9165924104
 Ar         5.5749792302        0.2288826176        1.0266114179
 Ar        -3.6408567554        3.9749965970       25.8707895343
 Ar        -0.2496273444       20.4573672286       -2.5106387121
 Ar         2.9385943803        0.8640557690        9.9755512552
 Ar         3.2992550335       -2.9271693219       -6.3515214298
 Ar        -6.1565237759       -6.8474310065       -6.4598599556
 Ar       -23.2441998853      -28.1220562117        7.1419962516
 Ar         4.1215779247        2.7158894292       -0.8558798120
 Ar        14.6116484707        2.8105153498        1.9330420190
 Ar        18.9578563975       16.5702388016       13.3435712814
 Ar       -28.6113657013        2.8465945240       -9.2385101201
 Ar        -5.9739381009      -16.2202775785       -9.2290548379
 Ar        10.0488739310       16.3816953612        5.1300536860
 Ar        -7.2177505539        6.3508948243       -0.6782126244
 Ar       -12.0119907394      -10.4694990272       -6.4311408129
 Ar        -8.5250835764       12.8970454858       -0.8934378994
 Ar       -25.3664440145        3.3340628903       -7.9452455714
 Ar         2.9031113241      -12.9629229060       -7.9515825701
 Ar       -13.6008729711       11.9908968284       -3.5439128302
 Ar        13.1383782903        4.9712982365       -3.5058190376
 Ar       -13.3293311706       16.0356022970        7.0506387964
 Ar        -4.1476140442      -19.5116658570       21.0236676115
 Ar        -8.4252214866       16.3081809754      -18.2859793877
 Ar         0.7875998083        9.5822091975       22.1765453463
 Ar        -2.9235001517       -7.9731023977      -21.3494694547
 Ar        -6.4017429093       -4.5602841521        2.7524559588
 Ar        -4.0351891779      -14.9246940278       -5.5829313673
 Ar       -27.8570971503        0.8089121712       -3.0183969022
 Ar        -2.8383018728        7.1177025470        6.1850751804
 Ar        -8.6887465604       -6.6623168886       -9.1634945791
 Ar       -11.9704170450       -2.2139822242       -1.8387855055
 Ar        22.6801955243       12.2071465882        1.0091351933
 Ar         6.2972429031       -0.7638778584       -6.9159236815
 Ar         3.5019780258       -8.0054213529       -0.4263089498
 Ar         0.3831233406       17.8799042241      -17.4074866772
 Ar        21.2247820979       10.2354793581      -13.0848358708
 Ar         1.2194435120        5.8298817647       16.8449811091
 Ar        -7.0845746687        6.0351569831      -22.3160995508
 Ar        -0.0231235473       17.4660836757        7.3742128115
 Ar        15.1031882919        9.8889380014       -8.5005236842
 Ar        -6.5772243164      -15.0459116432       14.7226490844
 Ar        -2.2236641050       -4.1782478042       -2.4726981650
 Ar         5.2123606430      -22.6532571134        7.3848466885
 Ar        -8.8579098671       -2.4726741810        2.3534175155
 Ar         6.7490246790        0.4237477941        5.4328441999
 Ar        11.9184781669        8.1348503728        2.3999784038
 Ar       -14.5459808465       -0.4752159515      -13.7093205016
 Ar        14.1205952101       -2.9866956125       24.6866863779
 Ar        -3.3492338518       -0.6813859393       -7.3626899614
 Ar         7.7966943904        3.3051298641       -0.0714643180
 Ar        -1.1405936868      -17.1687762319      -12.9118956990
 Ar        -9.2123873902      -10.4855222529       -8.3797673219
 Ar        -6.4800927805       -3.9143752396      -10.6516630124
 Ar         0.9872044661       13.7292873223        5.0675329150
 Ar         8.8602824063        9.9630829196        1.0930725047
 Ar        -6.5856850168      -20.3938142115       -7.2903033607
 Ar        -0.4466302051       19.5890213420       11.0259397844
 Ar         7.3614650825       -2.6991859671        7.2584991156
 Ar        13.8820702363       12.1927991384        1.2539049827
 Ar        -3.6553384838       19.7905848921      -11.8234584589
 Ar         1.4954820118       -5.3953550207        1.9174411012
 Ar        18.5891230791        3.0099452308        2.0687044491
 Ar         6.2072865986       -9.4811876533        5.5505969440
 Ar         3.6501407911        3.4267094410       -4.3147367527
 Ar         2.6805385314        2.2931148093        5.9805190926
 Ar        24.5054321847        4.0076799550       13.1498586573
 Ar        -0.6049827543        3.6250176094        6.3795949031
     108
 i =        4, time =        4.000, E =     -2273.7391567925
 Ar        -8.5473612012      -15.5820437039        2.8648856142
 Ar         1.5287207943        9.2794507497       11.1731547341
 Ar        12.0039466999       -7.4863966260       -9.9624047836
 Ar       -12.6825827479       -3.3347429940        4.0743001619
 Ar        -1.7737081356       -0.2228770251       13.2093593547
 Ar         8.0183032134       -2.5781037609       -4.1172761857
 Ar         8.5703326669        4.0137497732        5.5740103599
 Ar        -3.8934587962      -10.2952138105       -6.9925731891
 Ar        -3.3477946970      -16.1141095722       16.1320564322
 Ar         9.7980203762      -16.2585135371       -5.6879654044
 Ar         0.5105925711       -4.2321011648       12.4843400605
 Ar        15.5618125066       -7.9872801076        2.2130482723
 Ar        -5.4043741456       -2.6485777567       -0.6764657167
 Ar        -0.1039113781       -1.7406652442       -7.1333062537
 Ar         7.5287795140       -5.5319769215      -12.8809434823
 Ar        -5.4554423469        0.5603210095        2.0379272388
 Ar       -11.8630182510        3.4075493737        3.7310601126
 Ar        16.7223175397       -7.4720979688       -1.0236577385
 Ar       -20.4619972072       -5.7367067494        4.8177770833
 Ar        14.8432671151       -1.4246521934      -16.0994403718
 Ar         8.0511832509       -8.1348545110       -4.7546918576
 Ar        12.2745649658       -1.7151212307       12.9529654400
 Ar        -0.4314452366      -11.1248945462       20.4572850782
 Ar         2.2836694121        5.9289027756      -11.1737015582