 DBCSR| Multiplication driver                                               BLAS
 DBCSR| Multrec recursion limit                                              512
 DBCSR| Multiplication stack size                                           1000
 DBCSR| Maximum elements for images                                    UNLIMITED
 DBCSR| Multiplicative factor virtual images                                   1
 DBCSR| Multiplication size stacks                                             3
 DBCSR| Number of 3D layers                                               SINGLE
 DBCSR| Use MPI memory allocation                                              T
 DBCSR| Use RMA algorithm                                                      F
 DBCSR| Use Communication thread                                               T
 DBCSR| Communication thread load                                             87


  **** **** ******  **  PROGRAM STARTED AT               2022-05-24 22:40:23.866
 ***** ** ***  *** **   PROGRAM STARTED ON                        nick-ubuntu-vm
 **    ****   ******    PROGRAM STARTED BY                                  nick
 ***** **    ** ** **   PROGRAM PROCESS ID                                  3012
  **** **  *******  **  PROGRAM STARTED IN /home/nick/Documents/gitlab/pymatgen/
                                           cp2k_simulations/ar108/output

 CP2K| version string:                                          CP2K version 6.1
 CP2K| source code revision number:                                    svn:18464
 CP2K| cp2kflags: libint fftw3 libxc elpa=201605 elpa_qr parallel mpi3 scalapack
 CP2K|             libderiv_max_am1=5 libint_max_am=6
 CP2K| is freely available from                            https://www.cp2k.org/
 CP2K| Program compiled at                          Sun Mar 22 16:45:27 UTC 2020
 CP2K| Program compiled on                                       lcy01-amd64-017
 CP2K| Program compiled for                                Linux-x86_64-gfortran
 CP2K| Data directory path                                       /usr/share/cp2k
 CP2K| Input file name                                          ../src/ar108.inp

 GLOBAL| Force Environment number                                              1
 GLOBAL| Basis set file name                                           BASIS_SET
 GLOBAL| Potential file name                                      GTH_POTENTIALS
 GLOBAL| MM Potential file name                                     MM_POTENTIAL
 GLOBAL| Coordinate file name                                      __STD_INPUT__
 GLOBAL| Method name                                                        CP2K
 GLOBAL| Project name                                                      ar108
 GLOBAL| Preferred FFT library                                             FFTW3
 GLOBAL| Preferred diagonalization lib.                                       SL
 GLOBAL| Run type                                                             MD
 GLOBAL| All-to-all communication in single precision                          F
 GLOBAL| FFTs using library dependent lengths                                  F
 GLOBAL| Global print level                                               MEDIUM
 GLOBAL| Total number of message passing processes                             8
 GLOBAL| Number of threads for this process                                    1
 GLOBAL| This output is from process                                           0
 GLOBAL| CPU model name :  AMD Ryzen 7 5800H with Radeon Graphics

 MEMORY| system memory details [Kb]
 MEMORY|                        rank 0           min           max       average
 MEMORY| MemTotal              8042948       8042948       8042948       8042948
 MEMORY| MemFree               5019288       5019288       5019288       5019288
 MEMORY| Buffers                 55776         55776         55776         55776
 MEMORY| Cached                1176436       1176436       1176436       1176436
 MEMORY| Slab                   139484        139484        139484        139484
 MEMORY| SReclaimable            67460         67460         67460         67460
 MEMORY| MemLikelyFree         6318960       6318960       6318960       6318960


 *** Fundamental physical constants (SI units) ***

 *** Literature: B. J. Mohr and B. N. Taylor,
 ***             CODATA recommended values of the fundamental physical
 ***             constants: 2006, Web Version 5.1
 ***             http://physics.nist.gov/constants

 Speed of light in vacuum [m/s]                             2.99792458000000E+08
 Magnetic constant or permeability of vacuum [N/A**2]       1.25663706143592E-06
 Electric constant or permittivity of vacuum [F/m]          8.85418781762039E-12
 Planck constant (h) [J*s]                                  6.62606896000000E-34
 Planck constant (h-bar) [J*s]                              1.05457162825177E-34
 Elementary charge [C]                                      1.60217648700000E-19
 Electron mass [kg]                                         9.10938215000000E-31
 Electron g factor [ ]                                     -2.00231930436220E+00
 Proton mass [kg]                                           1.67262163700000E-27
 Fine-structure constant                                    7.29735253760000E-03
 Rydberg constant [1/m]                                     1.09737315685270E+07
 Avogadro constant [1/mol]                                  6.02214179000000E+23
 Boltzmann constant [J/K]                                   1.38065040000000E-23
 Atomic mass unit [kg]                                      1.66053878200000E-27
 Bohr radius [m]                                            5.29177208590000E-11

 *** Conversion factors ***

 [u] -> [a.u.]                                              1.82288848426455E+03
 [Angstrom] -> [Bohr] = [a.u.]                              1.88972613288564E+00
 [a.u.] = [Bohr] -> [Angstrom]                              5.29177208590000E-01
 [a.u.] -> [s]                                              2.41888432650478E-17
 [a.u.] -> [fs]                                             2.41888432650478E-02
 [a.u.] -> [J]                                              4.35974393937059E-18
 [a.u.] -> [N]                                              8.23872205491840E-08
 [a.u.] -> [K]                                              3.15774647902944E+05
 [a.u.] -> [kJ/mol]                                         2.62549961709828E+03
 [a.u.] -> [kcal/mol]                                       6.27509468713739E+02
 [a.u.] -> [Pa]                                             2.94210107994716E+13
 [a.u.] -> [bar]                                            2.94210107994716E+08
 [a.u.] -> [atm]                                            2.90362800883016E+08
 [a.u.] -> [eV]                                             2.72113838565563E+01
 [a.u.] -> [Hz]                                             6.57968392072181E+15
 [a.u.] -> [1/cm] (wave numbers)                            2.19474631370540E+05
 [a.u./Bohr**2] -> [1/cm]                                   5.14048714338585E+03
 

 CELL_TOP| Volume [angstrom^3]:                                         5051.263
 CELL_TOP| Vector a [angstrom    17.158     0.000     0.000    |a| =      17.158
 CELL_TOP| Vector b [angstrom     0.000    17.158     0.000    |b| =      17.158
 CELL_TOP| Vector c [angstrom     0.000     0.000    17.158    |c| =      17.158
 CELL_TOP| Angle (b,c), alpha [degree]:                                   90.000
 CELL_TOP| Angle (a,c), beta  [degree]:                                   90.000
 CELL_TOP| Angle (a,b), gamma [degree]:                                   90.000
 CELL_TOP| Numerically orthorhombic:                                         YES

 GENERATE|  Preliminary Number of Bonds generated:                             0
 GENERATE|  Achieved consistency in connectivity generation.

 CELL| Volume [angstrom^3]:                                             5051.263
 CELL| Vector a [angstrom]:      17.158     0.000     0.000    |a| =      17.158
 CELL| Vector b [angstrom]:       0.000    17.158     0.000    |b| =      17.158
 CELL| Vector c [angstrom]:       0.000     0.000    17.158    |c| =      17.158
 CELL| Angle (b,c), alpha [degree]:                                       90.000
 CELL| Angle (a,c), beta  [degree]:                                       90.000
 CELL| Angle (a,b), gamma [degree]:                                       90.000
 CELL| Numerically orthorhombic:                                             YES

 CELL_REF| Volume [angstrom^3]:                                         5051.263
 CELL_REF| Vector a [angstrom    17.158     0.000     0.000    |a| =      17.158
 CELL_REF| Vector b [angstrom     0.000    17.158     0.000    |b| =      17.158
 CELL_REF| Vector c [angstrom     0.000     0.000    17.158    |c| =      17.158
 CELL_REF| Angle (b,c), alpha [degree]:                                   90.000
 CELL_REF| Angle (a,c), beta  [degree]:                                   90.000
 CELL_REF| Angle (a,b), gamma [degree]:                                   90.000
 CELL_REF| Numerically orthorhombic:                                         YES

 *******************************************************************************
 *******************************************************************************
 **                                                                           **
 **     #####                         ##              ##                      **
 **    ##   ##            ##          ##              ##                      **
 **   ##     ##                       ##            ######                    **
 **   ##     ##  ##   ##  ##   #####  ##  ##   ####   ##    #####    #####    **
 **   ##     ##  ##   ##  ##  ##      ## ##   ##      ##   ##   ##  ##   ##   **
 **   ##  ## ##  ##   ##  ##  ##      ####     ###    ##   ######   ######    **
 **    ##  ###   ##   ##  ##  ##      ## ##      ##   ##   ##       ##        **
 **     #######   #####   ##   #####  ##  ##  ####    ##    #####   ##        **
 **           ##                                                    ##        **
 **                                                                           **
 **                                                ... make the atoms dance   **
 **                                                                           **
 **            Copyright (C) by CP2K developers group (2000 - 2018)           **
 **                                                                           **
 *******************************************************************************

 DFT| Spin restricted Kohn-Sham (RKS) calculation                            RKS
 DFT| Multiplicity                                                             1
 DFT| Number of spin states                                                    1
 DFT| Charge                                                                   0
 DFT| Self-interaction correction (SIC)                                       NO
 DFT| Cutoffs: density                                              1.000000E-10
 DFT|          gradient                                             1.000000E-10
 DFT|          tau                                                  1.000000E-10
 DFT|          cutoff_smoothing_range                               0.000000E+00
 DFT| XC density smoothing                                                  NONE
 DFT| XC derivatives                                                          PW
 FUNCTIONAL| ROUTINE=NEW
 FUNCTIONAL| PADE:
 FUNCTIONAL| S. Goedecker, M. Teter and J. Hutter, Phys. Rev. B 54, 1703 (1996) 

 QS| Method:                                                                 GPW
 QS| Density plane wave grid type                        NON-SPHERICAL FULLSPACE
 QS| Number of grid levels:                                                    4
 QS| Density cutoff [a.u.]:                                                 50.0
 QS| Multi grid cutoff [a.u.]: 1) grid level                                50.0
 QS|                           2) grid level                                16.7
 QS|                           3) grid level                                 5.6
 QS|                           4) grid level                                 1.9
 QS| Grid level progression factor:                                          3.0
 QS| Relative density cutoff [a.u.]:                                        15.0
 QS| Consistent realspace mapping and integration 
 QS| Interaction thresholds: eps_pgf_orb:                                1.0E-05
 QS|                         eps_filter_matrix:                          0.0E+00
 QS|                         eps_core_charge:                            1.0E-12
 QS|                         eps_rho_gspace:                             1.0E-10
 QS|                         eps_rho_rspace:                             1.0E-10
 QS|                         eps_gvg_rspace:                             1.0E-05
 QS|                         eps_ppl:                                    1.0E-02
 QS|                         eps_ppnl:                                   1.0E-07


 ATOMIC KIND INFORMATION

  1. Atomic kind: Ar                                    Number of atoms:     108

     Orbital Basis Set                                             DZVP-GTH-PADE

       Number of orbital shell sets:                                           2
       Number of orbital shells:                                               5
       Number of primitive Cartesian functions:                                5
       Number of Cartesian basis functions:                                   14
       Number of spherical basis functions:                                   13
       Norm type:                                                              2

       Normalised Cartesian orbitals:

                        Set   Shell   Orbital            Exponent    Coefficient

                          1       1    3s                2.643629       0.552275
                                                         1.694896      -0.105505
                                                         0.523111      -0.364525
                                                         0.166331      -0.061998

                          1       2    4s                2.643629       0.000000
                                                         1.694896       0.000000
                                                         0.523111       0.000000
                                                         0.166331       0.185626

                          1       3    4px               2.643629       0.833759
                                                         1.694896      -0.854793
                                                         0.523111      -0.368278
                                                         0.166331      -0.058737
                          1       3    4py               2.643629       0.833759
                                                         1.694896      -0.854793
                                                         0.523111      -0.368278
                                                         0.166331      -0.058737
                          1       3    4pz               2.643629       0.833759
                                                         1.694896      -0.854793
                                                         0.523111      -0.368278
                                                         0.166331      -0.058737

                          1       4    5px               2.643629       0.000000
                                                         1.694896       0.000000
                                                         0.523111       0.000000
                                                         0.166331       0.151410
                          1       4    5py               2.643629       0.000000
                                                         1.694896       0.000000
                                                         0.523111       0.000000
                                                         0.166331       0.151410
                          1       4    5pz               2.643629       0.000000
                                                         1.694896       0.000000
                                                         0.523111       0.000000
                                                         0.166331       0.151410

                          2       1    3dx2              0.850000       1.238490
                          2       1    3dxy              0.850000       2.145128
                          2       1    3dxz              0.850000       2.145128
                          2       1    3dy2              0.850000       1.238490
                          2       1    3dyz              0.850000       2.145128
                          2       1    3dz2              0.850000       1.238490

     GTH Potential information for                                   GTH-PADE-q8

       Description:                       Goedecker-Teter-Hutter pseudopotential
                                           Goedecker et al., PRB 54, 1703 (1996)
                                          Hartwigsen et al., PRB 58, 3641 (1998)
                                                      Krack, TCA 114, 145 (2005)

       Gaussian exponent of the core charge distribution:               3.125000
       Electronic configuration (s p d ...):                               2   6

       Parameters of the local part of the GTH pseudopotential:

                          rloc        C1          C2          C3          C4
                        0.400000   -7.100000

       Parameters of the non-local part of the GTH pseudopotential:

                   l      r(l)      h(i,j,l)

                   0    0.317381   10.249487   -2.169845
                                   -2.169845    5.602516
                   1    0.351619    4.978801


 MOLECULE KIND INFORMATION


 All atoms are their own molecule, skipping detailed information


 TOTAL NUMBERS AND MAXIMUM NUMBERS

  Total number of            - Atomic kinds:                                   1
                             - Atoms:                                        108
                             - Shell sets:                                   216
                             - Shells:                                       540
                             - Primitive Cartesian functions:                540
                             - Cartesian basis functions:                   1512
                             - Spherical basis functions:                   1404

  Maximum angular momentum of- Orbital basis functions:                        2
                             - Local part of the GTH pseudopotential:          0
                             - Non-local part of the GTH pseudopotential:      2


 MODULE QUICKSTEP:  ATOMIC COORDINATES IN angstrom

  Atom  Kind  Element       X           Y           Z          Z(eff)       Mass

       1     1 Ar  18   -8.538690  -15.581626    2.856637      8.00      39.9480
       2     1 Ar  18    1.530073    9.285282   11.177782      8.00      39.9480
       3     1 Ar  18   11.991023   -7.488253   -9.965453      8.00      39.9480
       4     1 Ar  18  -12.678240   -3.341059    4.074711      8.00      39.9480
       5     1 Ar  18   -1.770463   -0.232459   13.201295      8.00      39.9480
       6     1 Ar  18    8.017614   -2.572496   -4.127206      8.00      39.9480
       7     1 Ar  18    8.578495    4.013967    5.573688      8.00      39.9480
       8     1 Ar  18   -3.892007  -10.293092   -6.986402      8.00      39.9480
       9     1 Ar  18   -3.354572  -16.111962   16.135852      8.00      39.9480
      10     1 Ar  18    9.789572  -16.262826   -5.697909      8.00      39.9480
      11     1 Ar  18    0.505143   -4.229784   12.485417      8.00      39.9480
      12     1 Ar  18   15.563224   -7.980489    2.209947      8.00      39.9480
      13     1 Ar  18   -5.407416   -2.647645   -0.681485      8.00      39.9480
      14     1 Ar  18   -0.098372   -1.736740   -7.119155      8.00      39.9480
      15     1 Ar  18    7.526558   -5.529700  -12.888615      8.00      39.9480
      16     1 Ar  18   -5.456554    0.564446    2.039025      8.00      39.9480
      17     1 Ar  18  -11.859100    3.404074    3.726879      8.00      39.9480
      18     1 Ar  18   16.717536   -7.471324   -1.022745      8.00      39.9480
      19     1 Ar  18  -20.457213   -5.737008    4.818451      8.00      39.9480
      20     1 Ar  18   14.848552   -1.416086  -16.083911      8.00      39.9480
      21     1 Ar  18    8.043795   -8.140338   -4.755431      8.00      39.9480
      22     1 Ar  18   12.273844   -1.705898   12.962249      8.00      39.9480
      23     1 Ar  18   -0.421852  -11.117749   20.454536      8.00      39.9480
      24     1 Ar  18    2.281943    5.920839  -11.173245      8.00      39.9480
      25     1 Ar  18  -13.964847    8.779239    8.073734      8.00      39.9480
      26     1 Ar  18  -10.314744    6.385296  -15.341196      8.00      39.9480
      27     1 Ar  18   -2.719000  -21.489007   10.867810      8.00      39.9480
      28     1 Ar  18  -17.792388  -10.784090   -4.839550      8.00      39.9480
      29     1 Ar  18    5.234941   -6.792229   -6.071877      8.00      39.9480
      30     1 Ar  18    3.524488  -10.122595    2.968290      8.00      39.9480
      31     1 Ar  18  -16.158660   -5.182743    8.570727      8.00      39.9480
      32     1 Ar  18   -5.809828    4.326402    2.555991      8.00      39.9480
      33     1 Ar  18    6.291601   27.574134   15.024641      8.00      39.9480
      34     1 Ar  18   -3.187417   23.299647  -16.803485      8.00      39.9480
      35     1 Ar  18   -4.202258    9.360377   16.589131      8.00      39.9480
      36     1 Ar  18   -7.643929   -9.524324  -29.822873      8.00      39.9480
      37     1 Ar  18    0.545353   13.924055   -0.383787      8.00      39.9480
      38     1 Ar  18   -5.274329   -5.538138  -20.301470      8.00      39.9480
      39     1 Ar  18   22.992185    6.786194   -1.982899      8.00      39.9480
      40     1 Ar  18   19.772003  -10.237334   -3.330818      8.00      39.9480
      41     1 Ar  18    0.156777    6.596301    8.907491      8.00      39.9480
      42     1 Ar  18    5.579374    0.233106    1.027523      8.00      39.9480
      43     1 Ar  18   -3.643436    3.964489   25.875212      8.00      39.9480
      44     1 Ar  18   -0.248492   20.448973   -2.512204      8.00      39.9480
      45     1 Ar  18    2.936267    0.859812    9.967433      8.00      39.9480
      46     1 Ar  18    3.303843   -2.924213   -6.349270      8.00      39.9480
      47     1 Ar  18   -6.154902   -6.849615   -6.462041      8.00      39.9480
      48     1 Ar  18  -23.238829  -28.121309    7.137210      8.00      39.9480
      49     1 Ar  18    4.115263    2.715641   -0.852030      8.00      39.9480
      50     1 Ar  18   14.619415    2.808152    1.936020      8.00      39.9480
      51     1 Ar  18   18.966795   16.570089   13.342344      8.00      39.9480
      52     1 Ar  18  -28.612416    2.843536   -9.236020      8.00      39.9480
      53     1 Ar  18   -5.970046  -16.223017   -9.229281      8.00      39.9480
      54     1 Ar  18   10.048108   16.385482    5.125787      8.00      39.9480
      55     1 Ar  18   -7.225085    6.346154   -0.680757      8.00      39.9480
      56     1 Ar  18  -12.013891  -10.465311   -6.434348      8.00      39.9480
      57     1 Ar  18   -8.531699   12.897659   -0.890361      8.00      39.9480
      58     1 Ar  18  -25.370069    3.331199   -7.939177      8.00      39.9480
      59     1 Ar  18    2.901635  -12.966818   -7.949078      8.00      39.9480
      60     1 Ar  18  -13.596394   11.989658   -3.550688      8.00      39.9480
      61     1 Ar  18   13.141603    4.971438   -3.508413      8.00      39.9480
      62     1 Ar  18  -13.329546   16.041002    7.052828      8.00      39.9480
      63     1 Ar  18   -4.150683  -19.511191   21.025597      8.00      39.9480
      64     1 Ar  18   -8.429443   16.306516  -18.288782      8.00      39.9480
      65     1 Ar  18    0.788636    9.590168   22.177261      8.00      39.9480
      66     1 Ar  18   -2.926068   -7.974081  -21.351990      8.00      39.9480
      67     1 Ar  18   -6.399599   -4.562805    2.755336      8.00      39.9480
      68     1 Ar  18   -4.044239  -14.927597   -5.585615      8.00      39.9480
      69     1 Ar  18  -27.852491    0.802052   -3.026638      8.00      39.9480
      70     1 Ar  18   -2.839665    7.116271    6.185473      8.00      39.9480
      71     1 Ar  18   -8.683279   -6.670883   -9.158155      8.00      39.9480
      72     1 Ar  18  -11.962085   -2.209562   -1.839800      8.00      39.9480
      73     1 Ar  18   22.684855   12.204721    1.012388      8.00      39.9480
      74     1 Ar  18    6.295010   -0.769712   -6.914543      8.00      39.9480
      75     1 Ar  18    3.499955   -8.007049   -0.426527      8.00      39.9480
      76     1 Ar  18    0.385155   17.876974  -17.406523      8.00      39.9480
      77     1 Ar  18   21.228887   10.232710  -13.087220      8.00      39.9480
      78     1 Ar  18    1.220826    5.835974   16.845010      8.00      39.9480
      79     1 Ar  18   -7.087540    6.034130  -22.325145      8.00      39.9480
      80     1 Ar  18   -0.024427   17.469361    7.371167      8.00      39.9480
      81     1 Ar  18   15.098182    9.889405   -8.493827      8.00      39.9480
      82     1 Ar  18   -6.578777  -15.048453   14.723036      8.00      39.9480
      83     1 Ar  18   -2.226667   -4.184219   -2.470079      8.00      39.9480
      84     1 Ar  18    5.206211  -22.656518    7.394757      8.00      39.9480
      85     1 Ar  18   -8.858288   -2.475107    2.354414      8.00      39.9480
      86     1 Ar  18    6.752024    0.430391    5.434925      8.00      39.9480
      87     1 Ar  18   11.926313    8.132673    2.400811      8.00      39.9480
      88     1 Ar  18  -14.550756   -0.471541  -13.705843      8.00      39.9480
      89     1 Ar  18   14.115769   -2.989686   24.684280      8.00      39.9480
      90     1 Ar  18   -3.351073   -0.681363   -7.370399      8.00      39.9480
      91     1 Ar  18    7.792699    3.306876   -0.073238      8.00      39.9480
      92     1 Ar  18   -1.132891  -17.167284  -12.912647      8.00      39.9480
      93     1 Ar  18   -9.210543  -10.484651   -8.384858      8.00      39.9480
      94     1 Ar  18   -6.478488   -3.907367  -10.649967      8.00      39.9480
      95     1 Ar  18    0.987875   13.736359    5.072097      8.00      39.9480
      96     1 Ar  18    8.860978    9.961039    1.093738      8.00      39.9480
      97     1 Ar  18   -6.580688  -20.401935   -7.289356      8.00      39.9480
      98     1 Ar  18   -0.448977   19.586252   11.035120      8.00      39.9480
      99     1 Ar  18    7.360569   -2.695943    7.260819      8.00      39.9480
     100     1 Ar  18   13.879134   12.190347    1.248899      8.00      39.9480
     101     1 Ar  18   -3.657828   19.782906  -11.816151      8.00      39.9480
     102     1 Ar  18    1.497295   -5.392900    1.924458      8.00      39.9480
     103     1 Ar  18   18.586161    3.008684    2.064401      8.00      39.9480
     104     1 Ar  18    6.207308   -9.474184    5.549305      8.00      39.9480
     105     1 Ar  18    3.650548    3.431811   -4.311608      8.00      39.9480
     106     1 Ar  18    2.678626    2.293006    5.985030      8.00      39.9480
     107     1 Ar  18   24.511312    4.007332   13.141250      8.00      39.9480
     108     1 Ar  18   -0.600233    3.628256    6.384113      8.00      39.9480




 SCF PARAMETERS         Density guess:                                    ATOMIC
                        --------------------------------------------------------
                        max_scf:                                             300
                        max_scf_history:                                       0
                        max_diis:                                              4
                        --------------------------------------------------------
                        eps_scf:                                        1.00E-07
                        eps_scf_history:                                0.00E+00
                        eps_diis:                                       1.00E-01
                        eps_eigval:                                     1.00E-05
                        --------------------------------------------------------
                        level_shift [a.u.]:                                 0.00
                        --------------------------------------------------------
                        Mixing method:                            BROYDEN_MIXING
                                                charge density mixing in g-space
                        --------------------------------------------------------
                        No outer SCF

 PW_GRID| Information for grid number                                          1
 PW_GRID| Grid distributed over                                     8 processors
 PW_GRID| Real space group dimensions                                     8    1
 PW_GRID| the grid is blocked:                                                NO
 PW_GRID| Cutoff [a.u.]                                                     50.0
 PW_GRID| spherical cutoff:                                                   NO
 PW_GRID|   Bounds   1            -54      53                Points:         108
 PW_GRID|   Bounds   2            -54      53                Points:         108
 PW_GRID|   Bounds   3            -54      53                Points:         108
 PW_GRID| Volume element (a.u.^3)  0.2706E-01     Volume (a.u.^3)     34087.6135
 PW_GRID| Grid span                                                    FULLSPACE
 PW_GRID|   Distribution                         Average         Max         Min
 PW_GRID|   G-Vectors                           157464.0      157464      157464
 PW_GRID|   G-Rays                                1458.0        1458        1458
 PW_GRID|   Real Space Points                   157464.0      163296      151632

 PW_GRID| Information for grid number                                          2
 PW_GRID| Grid distributed over                                     8 processors
 PW_GRID| Real space group dimensions                                     8    1
 PW_GRID| the grid is blocked:                                                NO
 PW_GRID| Cutoff [a.u.]                                                     16.7
 PW_GRID| spherical cutoff:                                                   NO
 PW_GRID|   Bounds   1            -30      29                Points:          60
 PW_GRID|   Bounds   2            -30      29                Points:          60
 PW_GRID|   Bounds   3            -30      29                Points:          60
 PW_GRID| Volume element (a.u.^3)  0.1578         Volume (a.u.^3)     34087.6135
 PW_GRID| Grid span                                                    FULLSPACE
 PW_GRID|   Distribution                         Average         Max         Min
 PW_GRID|   G-Vectors                            27000.0       27120       26940
 PW_GRID|   G-Rays                                 450.0         452         449
 PW_GRID|   Real Space Points                    27000.0       28800       25200

 PW_GRID| Information for grid number                                          3
 PW_GRID| Grid distributed over                                     8 processors
 PW_GRID| Real space group dimensions                                     8    1
 PW_GRID| the grid is blocked:                                                NO
 PW_GRID| Cutoff [a.u.]                                                      5.6
 PW_GRID| spherical cutoff:                                                   NO
 PW_GRID|   Bounds   1            -18      17                Points:          36
 PW_GRID|   Bounds   2            -18      17                Points:          36
 PW_GRID|   Bounds   3            -18      17                Points:          36
 PW_GRID| Volume element (a.u.^3)  0.7306         Volume (a.u.^3)     34087.6135
 PW_GRID| Grid span                                                    FULLSPACE
 PW_GRID|   Distribution                         Average         Max         Min
 PW_GRID|   G-Vectors                             5832.0        5904        5796
 PW_GRID|   G-Rays                                 162.0         164         161
 PW_GRID|   Real Space Points                     5832.0        6480        5184

 PW_GRID| Information for grid number                                          4
 PW_GRID| Grid distributed over                                     8 processors
 PW_GRID| Real space group dimensions                                     8    1
 PW_GRID| the grid is blocked:                                                NO
 PW_GRID| Cutoff [a.u.]                                                      1.9
 PW_GRID| spherical cutoff:                                                   NO
 PW_GRID|   Bounds   1            -10       9                Points:          20
 PW_GRID|   Bounds   2            -10       9                Points:          20
 PW_GRID|   Bounds   3            -10       9                Points:          20
 PW_GRID| Volume element (a.u.^3)   4.261         Volume (a.u.^3)     34087.6135
 PW_GRID| Grid span                                                    FULLSPACE
 PW_GRID|   Distribution                         Average         Max         Min
 PW_GRID|   G-Vectors                             1000.0        1040         980
 PW_GRID|   G-Rays                                  50.0          52          49
 PW_GRID|   Real Space Points                     1000.0        1200         800

 POISSON| Solver                                                        PERIODIC
 POISSON| Periodicity                                                        XYZ

 RS_GRID| Information for grid number                                          1
 RS_GRID|   Bounds   1            -54      53                Points:         108
 RS_GRID|   Bounds   2            -54      53                Points:         108
 RS_GRID|   Bounds   3            -54      53                Points:         108
 RS_GRID| Real space distribution over                                  8 groups
 RS_GRID| Real space distribution along direction                              3
 RS_GRID| Border size                                                         17
 RS_GRID|   Distribution                         Average         Max         Min
 RS_GRID|   Planes                                  47.5          48          47

 RS_GRID| Information for grid number                                          2
 RS_GRID|   Bounds   1            -30      29                Points:          60
 RS_GRID|   Bounds   2            -30      29                Points:          60
 RS_GRID|   Bounds   3            -30      29                Points:          60
 RS_GRID| Real space fully replicated
 RS_GRID| Group size                                                           1

 RS_GRID| Information for grid number                                          3
 RS_GRID|   Bounds   1            -18      17                Points:          36
 RS_GRID|   Bounds   2            -18      17                Points:          36
 RS_GRID|   Bounds   3            -18      17                Points:          36
 RS_GRID| Real space fully replicated
 RS_GRID| Group size                                                           1

 RS_GRID| Information for grid number                                          4
 RS_GRID|   Bounds   1            -10       9                Points:          20
 RS_GRID|   Bounds   2            -10       9                Points:          20
 RS_GRID|   Bounds   3            -10       9                Points:          20
 RS_GRID| Real space fully replicated
 RS_GRID| Group size                                                           1

 MD| Molecular Dynamics Protocol 
 MD| Ensemble Type                                                           NVT
 MD| Number of Time Steps                                                    100
 MD| Time Step [fs]                                                         1.00
 MD| Temperature [K]                                                      100.00
 MD| Temperature tolerance [K]                                              0.00
 MD| Print MD information every                                        1 step(s)
 MD| File type     Print frequency[steps]                             File names
 MD| Coordinates            1                                    ar108-pos-1.xyz
 MD| Velocities             1                                    ar108-vel-1.xyz
 MD| Energies               1                                       ar108-1.ener
 MD| Dump                  20                                    ar108-1.restart

 ROT| Rotational Analysis Info 
 ROT| Principal axes and moments of inertia in atomic units:
 ROT|                                1                 2                 3
 ROT| EIGENVALUES            0.575980946E+10   0.663791841E+10   0.709298621E+10
 ROT|      X                    -0.704366976       0.088016074       0.704358100
 ROT|      Y                    -0.587139214      -0.629889070      -0.508436134
 ROT|      Z                    -0.398916916       0.771681884      -0.495350749
 ROT| Numer of Rotovibrational vectors:     6

 Calculation of degrees of freedom
                                                      Number of atoms:       108
                                 Number of Intramolecular constraints:         0
                                 Number of Intermolecular constraints:         0
                                  Invariants(translation + rotations):         0
                                                   Degrees of freedom:       324


 Restraints Information
                                  Number of Intramolecular restraints:         0
                                  Number of Intermolecular restraints:         0

 THERMOSTAT| Thermostat Info for PARTICLES
 THERMOSTAT| Type of thermostat                               Nose-Hoover-Chains
 THERMOSTAT| Nose-Hoover-Chain length                                          3
 THERMOSTAT| Nose-Hoover-Chain time constant [  fs]                      1000.00
 THERMOSTAT| Order of Yoshida integrator                                       3
 THERMOSTAT| Number of multiple time steps                                     2
 THERMOSTAT| Initial Potential Energy                                   0.000000
 THERMOSTAT| Initial Kinetic Energy                                     0.051302
 THERMOSTAT| End of Thermostat Info for PARTICLES

 ************************** Velocities initialization **************************
 Initial Temperature                                                    100.00 K
 COM velocity:            0.000000000000     -0.000000000000     -0.000000000000
 *******************************************************************************


 Number of electrons:                                                        864
 Number of occupied orbitals:                                                432
 Number of molecular orbitals:                                               432

 Number of orbital functions:                                               1404
 Number of independent orbital functions:                                   1404

 Extrapolation method: initial_guess

 Atomic guess: The first density matrix is obtained in terms of atomic orbitals
               and electronic configurations assigned to each atomic kind

 Guess for atomic kind: Ar

 Electronic structure
    Total number of core electrons                                         10.00
    Total number of valence electrons                                       8.00
    Total number of electrons                                              18.00
    Multiplicity                                                   not specified
    S   [  2.00  2.00] 2.00
    P   [  6.00] 6.00


 *******************************************************************************
                  Iteration          Convergence                     Energy [au]
 *******************************************************************************
                          1         2.16390                     -19.955017876108
                          2         2.12144                     -20.467037201883
                          3        0.332005E-01                 -21.000858557687
                          4        0.165107E-02                 -21.001011765553
                          5        0.881312E-03                 -21.001012029267
                          6        0.604780E-03                 -21.001012084836
                          7        0.300552E-05                 -21.001012134267
                          8        0.247977E-08                 -21.001012134268

 Energy components [Hartree]           Total Energy ::          -21.001012134268
                                        Band Energy ::           -3.950732107021
                                     Kinetic Energy ::            7.914079376965
                                   Potential Energy ::          -28.915091511233
                                      Virial (-V/T) ::            3.653626673924
                                        Core Energy ::          -35.588740825246
                                          XC Energy ::           -3.564248844275
                                     Coulomb Energy ::           18.151977535253
                       Total Pseudopotential Energy ::          -43.551350793425
                       Local Pseudopotential Energy ::          -48.024075912148
                    Nonlocal Pseudopotential Energy ::            4.472725118723
                                        Confinement ::            0.485305912143

 Orbital energies  State     L     Occupation   Energy[a.u.]          Energy[eV]

                       1     0          2.000      -0.876834          -23.859873

                       1     1          6.000      -0.366177           -9.964190


 Total Electron Density at R=0:                                         0.000864
 Re-scaling the density matrix to get the right number of electrons
                  # Electrons              Trace(P)               Scaling factor
                          864               864.000                        1.000


 SCF WAVEFUNCTION OPTIMIZATION

  Step     Update method      Time    Convergence         Total energy    Change
  ------------------------------------------------------------------------------
     1 NoMix/Diag. 0.40E+00    1.3     0.10975309     -2274.0507679516 -2.27E+03
     2 Broy./Diag. 0.40E+00    1.5     0.01462956     -2282.0716423273 -8.02E+00
     3 Broy./Diag. 0.40E+00    1.5     0.00859520     -2275.9435009251  6.13E+00
     4 Broy./Diag. 0.40E+00    1.5     0.00021728     -2273.8357456489  2.11E+00
     5 Broy./Diag. 0.40E+00    1.5     0.00021936     -2273.7775501496  5.82E-02
     6 Broy./Diag. 0.40E+00    1.5     0.00002674     -2273.7387469471  3.88E-02
     7 Broy./Diag. 0.40E+00    1.6     0.00003914     -2273.7406627502 -1.92E-03
     8 Broy./Diag. 0.40E+00    1.5     0.00001912     -2273.7396591231  1.00E-03
     9 Broy./Diag. 0.40E+00    1.5     0.00001233     -2273.7391874648  4.72E-04
    10 Broy./Diag. 0.40E+00    1.6     0.00000754     -2273.7391127234  7.47E-05
    11 Broy./Diag. 0.40E+00    1.5     0.00000835     -2273.7394278459 -3.15E-04
    12 Broy./Diag. 0.40E+00    1.5     0.00000215     -2273.7394411436 -1.33E-05
    13 Broy./Diag. 0.40E+00    1.5     0.00000351     -2273.7393388387  1.02E-04
    14 Broy./Diag. 0.40E+00    1.5     0.00000145     -2273.7393329839  5.85E-06
    15 Broy./Diag. 0.40E+00    1.5     0.00000078     -2273.7393328464  1.38E-07
    16 Broy./Diag. 0.40E+00    1.5     0.00000052     -2273.7393560604 -2.32E-05
    17 Broy./Diag. 0.40E+00    1.5     0.00000015     -2273.7393581481 -2.09E-06
    18 Broy./Diag. 0.40E+00    1.5     0.00000009     -2273.7393468018  1.13E-05

  *** SCF run converged in    18 steps ***


  Electronic density on regular grids:       -863.9999999897        0.0000000103
  Core density on regular grids:              863.9999999393       -0.0000000607
  Total charge density on r-space grids:       -0.0000000503
  Total charge density g-space grids:          -0.0000000504

  Overlap energy of the core charge distribution:               0.00000000000000
  Self energy of the core charge distribution:              -4874.59800185261429
  Core Hamiltonian energy:                                   1139.56605612623025
  Hartree energy:                                            1845.54483169690820
  Exchange-correlation energy:                               -384.25223277234159

  Total energy:                                             -2273.73934680181719

 !-----------------------------------------------------------------------------!
                     Mulliken Population Analysis

 #  Atom  Element  Kind  Atomic population                           Net charge
       1     Ar       1          7.999950                              0.000050
       2     Ar       1          8.000031                             -0.000031
       3     Ar       1          7.999984                              0.000016
       4     Ar       1          7.999992                              0.000008
       5     Ar       1          8.000003                             -0.000003
       6     Ar       1          7.999981                              0.000019
       7     Ar       1          8.000075                             -0.000075
       8     Ar       1          8.000066                             -0.000066
       9     Ar       1          7.999955                              0.000045
      10     Ar       1          7.999948                              0.000052
      11     Ar       1          7.999936                              0.000064
      12     Ar       1          8.000029                             -0.000029
      13     Ar       1          8.000024                             -0.000024
      14     Ar       1          8.000010                             -0.000010
      15     Ar       1          8.000032                             -0.000032
      16     Ar       1          8.000070                             -0.000070
      17     Ar       1          8.000028                             -0.000028
      18     Ar       1          8.000002                             -0.000002
      19     Ar       1          7.999989                              0.000011
      20     Ar       1          7.999897                              0.000103
      21     Ar       1          7.999969                              0.000031
      22     Ar       1          7.999985                              0.000015
      23     Ar       1          7.999969                              0.000031
      24     Ar       1          7.999962                              0.000038
      25     Ar       1          8.000003                             -0.000003
      26     Ar       1          7.999980                              0.000020
      27     Ar       1          8.000083                             -0.000083
      28     Ar       1          7.999939                              0.000061
      29     Ar       1          8.000051                             -0.000051
      30     Ar       1          7.999932                              0.000068
      31     Ar       1          8.000023                             -0.000023
      32     Ar       1          8.000085                             -0.000085
      33     Ar       1          7.999990                              0.000010
      34     Ar       1          7.999965                              0.000035
      35     Ar       1          7.999997                              0.000003
      36     Ar       1          8.000001                             -0.000001
      37     Ar       1          7.999923                              0.000077
      38     Ar       1          7.999845                              0.000155
      39     Ar       1          8.000015                             -0.000015
      40     Ar       1          7.999985                              0.000015
      41     Ar       1          7.999983                              0.000017
      42     Ar       1          8.000022                             -0.000022
      43     Ar       1          8.000015                             -0.000015
      44     Ar       1          8.000043                             -0.000043
      45     Ar       1          8.000023                             -0.000023
      46     Ar       1          7.999962                              0.000038
      47     Ar       1          7.999983                              0.000017
      48     Ar       1          7.999971                              0.000029
      49     Ar       1          7.999976                              0.000024
      50     Ar       1          7.999997                              0.000003
      51     Ar       1          7.999992                              0.000008
      52     Ar       1          8.000066                             -0.000066
      53     Ar       1          7.999986                              0.000014
      54     Ar       1          8.000080                             -0.000080
      55     Ar       1          8.000019                             -0.000019
      56     Ar       1          8.000020                             -0.000020
      57     Ar       1          8.000031                             -0.000031
      58     Ar       1          7.999995                              0.000005
      59     Ar       1          7.999935                              0.000065
      60     Ar       1          7.999969                              0.000031
      61     Ar       1          7.999927                              0.000073
      62     Ar       1          8.000002                             -0.000002
      63     Ar       1          7.999951                              0.000049
      64     Ar       1          8.000000                             -0.000000
      65     Ar       1          7.999996                              0.000004
      66     Ar       1          8.000005                             -0.000005
      67     Ar       1          8.000124                             -0.000124
      68     Ar       1          8.000031                             -0.000031
      69     Ar       1          8.000068                             -0.000068
      70     Ar       1          8.000016                             -0.000016
      71     Ar       1          8.000035                             -0.000035
      72     Ar       1          8.000001                             -0.000001
      73     Ar       1          8.000018                             -0.000018
      74     Ar       1          7.999961                              0.000039
      75     Ar       1          8.000033                             -0.000033
      76     Ar       1          8.000008                             -0.000008
      77     Ar       1          7.999982                              0.000018
      78     Ar       1          7.999990                              0.000010
      79     Ar       1          7.999975                              0.000025
      80     Ar       1          8.000025                             -0.000025
      81     Ar       1          7.999996                              0.000004
      82     Ar       1          7.999991                              0.000009
      83     Ar       1          8.000036                             -0.000036
      84     Ar       1          7.999922                              0.000078
      85     Ar       1          8.000005                             -0.000005
      86     Ar       1          7.999964                              0.000036
      87     Ar       1          8.000005                             -0.000005
      88     Ar       1          7.999967                              0.000033
      89     Ar       1          7.999981                              0.000019
      90     Ar       1          8.000066                             -0.000066
      91     Ar       1          8.000023                             -0.000023
      92     Ar       1          8.000037                             -0.000037
      93     Ar       1          7.999997                              0.000003
      94     Ar       1          7.999999                              0.000001
      95     Ar       1          7.999999                              0.000001
      96     Ar       1          7.999960                              0.000040
      97     Ar       1          8.000038                             -0.000038
      98     Ar       1          8.000044                             -0.000044
      99     Ar       1          8.000050                             -0.000050
     100     Ar       1          7.999990                              0.000010
     101     Ar       1          7.999941                              0.000059
     102     Ar       1          8.000094                             -0.000094
     103     Ar       1          7.999943                              0.000057
     104     Ar       1          7.999985                              0.000015
     105     Ar       1          8.000024                             -0.000024
     106     Ar       1          8.000023                             -0.000023
     107     Ar       1          7.999950                              0.000050
     108     Ar       1          8.000049                             -0.000049
 # Total charge                            864.000000                 -0.000000

 !-----------------------------------------------------------------------------!

 !-----------------------------------------------------------------------------!
                           Hirshfeld Charges

  #Atom  Element  Kind  Ref Charge     Population                    Net charge
      1       Ar     1       8.000          7.999                         0.001
      2       Ar     1       8.000          8.000                        -0.000
      3       Ar     1       8.000          8.000                         0.000
      4       Ar     1       8.000          8.000                         0.000
      5       Ar     1       8.000          8.000                         0.000
      6       Ar     1       8.000          8.000                        -0.000
      7       Ar     1       8.000          8.000                        -0.000
      8       Ar     1       8.000          8.000                         0.000
      9       Ar     1       8.000          8.000                         0.000
     10       Ar     1       8.000          8.000                         0.000
     11       Ar     1       8.000          8.000                         0.000
     12       Ar     1       8.000          8.000                         0.000
     13       Ar     1       8.000          8.000                        -0.000
     14       Ar     1       8.000          8.000                         0.000
     15       Ar     1       8.000          8.000                        -0.000
     16       Ar     1       8.000          8.000                        -0.000
     17       Ar     1       8.000          8.000                        -0.000
     18       Ar     1       8.000          8.000                        -0.000
     19       Ar     1       8.000          8.000                        -0.000
     20       Ar     1       8.000          8.000                         0.000
     21       Ar     1       8.000          8.000                         0.000
     22       Ar     1       8.000          8.000                        -0.000
     23       Ar     1       8.000          8.000                         0.000
     24       Ar     1       8.000          8.000                         0.000
     25       Ar     1       8.000          8.000                         0.000
     26       Ar     1       8.000          8.000                        -0.000
     27       Ar     1       8.000          8.000                        -0.000
     28       Ar     1       8.000          8.000                         0.000
     29       Ar     1       8.000          8.000                        -0.000
     30       Ar     1       8.000          8.000                         0.000
     31       Ar     1       8.000          8.000                        -0.000
     32       Ar     1       8.000          8.000                        -0.000
     33       Ar     1       8.000          8.000                         0.000
     34       Ar     1       8.000          8.000                        -0.000
     35       Ar     1       8.000          8.000                         0.000
     36       Ar     1       8.000          8.000                         0.000
     37       Ar     1       8.000          8.000                        -0.000
     38       Ar     1       8.000          8.000                         0.000
     39       Ar     1       8.000          8.000                        -0.000
     40       Ar     1       8.000          8.000                         0.000
     41       Ar     1       8.000          8.000                        -0.000
     42       Ar     1       8.000          8.000                        -0.000
     43       Ar     1       8.000          8.000                         0.000
     44       Ar     1       8.000          8.000                        -0.000
     45       Ar     1       8.000          8.000                         0.000
     46       Ar     1       8.000          8.000                        -0.000
     47       Ar     1       8.000          8.000                        -0.000
     48       Ar     1       8.000          8.000                         0.000
     49       Ar     1       8.000          8.000                        -0.000
     50       Ar     1       8.000          8.000                        -0.000
     51       Ar     1       8.000          8.000                        -0.000
     52       Ar     1       8.000          8.000                        -0.000
     53       Ar     1       8.000          8.000                        -0.000
     54       Ar     1       8.000          8.000                         0.000
     55       Ar     1       8.000          8.000                        -0.000
     56       Ar     1       8.000          8.000                        -0.000
     57       Ar     1       8.000          8.000                         0.000
     58       Ar     1       8.000          8.000                         0.000
     59       Ar     1       8.000          8.000                         0.000
     60       Ar     1       8.000          8.000                         0.000
     61       Ar     1       8.000          8.000                         0.000
     62       Ar     1       8.000          8.000                        -0.000
     63       Ar     1       8.000          8.000                         0.000
     64       Ar     1       8.000          8.000                         0.000
     65       Ar     1       8.000          8.000                        -0.000
     66       Ar     1       8.000          8.000                        -0.000
     67       Ar     1       8.000          8.000                         0.000
     68       Ar     1       8.000          8.000                         0.000
     69       Ar     1       8.000          8.000                         0.000
     70       Ar     1       8.000          8.000                        -0.000
     71       Ar     1       8.000          8.000                        -0.000
     72       Ar     1       8.000          8.000                        -0.000
     73       Ar     1       8.000          8.000                        -0.000
     74       Ar     1       8.000          8.000                        -0.000
     75       Ar     1       8.000          8.000                        -0.000
     76       Ar     1       8.000          8.000                         0.000
     77       Ar     1       8.000          8.000                         0.000
     78       Ar     1       8.000          8.000                         0.000
     79       Ar     1       8.000          8.000                        -0.000
     80       Ar     1       8.000          8.000                         0.000
     81       Ar     1       8.000          8.000                        -0.000
     82       Ar     1       8.000          8.000                        -0.000
     83       Ar     1       8.000          8.000                         0.000
     84       Ar     1       8.000          8.000                         0.000
     85       Ar     1       8.000          8.000                        -0.000
     86       Ar     1       8.000          8.000                         0.000
     87       Ar     1       8.000          8.000                         0.000
     88       Ar     1       8.000          8.000                         0.000
     89       Ar     1       8.000          8.000                        -0.000
     90       Ar     1       8.000          8.000                         0.000
     91       Ar     1       8.000          8.000                        -0.000
     92       Ar     1       8.000          8.000                        -0.000
     93       Ar     1       8.000          8.000                         0.000
     94       Ar     1       8.000          8.000                         0.000
     95       Ar     1       8.000          8.000                        -0.000
     96       Ar     1       8.000          8.000                        -0.000
     97       Ar     1       8.000          8.000                        -0.000
     98       Ar     1       8.000          8.000                        -0.000
     99       Ar     1       8.000          8.000                        -0.000
    100       Ar     1       8.000          8.000                        -0.000
    101       Ar     1       8.000          8.000                        -0.000
    102       Ar     1       8.000          8.000                        -0.000
    103       Ar     1       8.000          8.000                         0.000
    104       Ar     1       8.000          8.000                        -0.000
    105       Ar     1       8.000          8.000                        -0.000
    106       Ar     1       8.000          8.000                         0.000
    107       Ar     1       8.000          8.000                         0.000
    108       Ar     1       8.000          8.000                        -0.000

  Total Charge                                                           -0.000
 !-----------------------------------------------------------------------------!

 ENERGY| Total FORCE_EVAL ( QS ) energy (a.u.):            -2273.739349566032615


 MD_ENERGIES| Initialization proceeding


 ******************************** GO CP2K GO! **********************************
 INITIAL POTENTIAL ENERGY[hartree]     =                     -0.227373934957E+04
 INITIAL KINETIC ENERGY[hartree]       =                      0.513024085612E-01
 INITIAL TEMPERATURE[K]                =                                 100.000
 INITIAL VOLUME[bohr^3]                =                      0.340876135221E+05
 INITIAL CELL LNTHS[bohr]   =      0.3242392E+02   0.3242392E+02   0.3242392E+02
 INITIAL CELL ANGLS[deg]    =      0.9000000E+02   0.9000000E+02   0.9000000E+02
 ******************************** GO CP2K GO! **********************************

 Number of electrons:                                                        864
 Number of occupied orbitals:                                                432
 Number of molecular orbitals:                                               432

 Number of orbital functions:                                               1404
 Number of independent orbital functions:                                   1404

 Parameters for the always stable predictor-corrector (ASPC) method:

  ASPC order: 0

  B(1) =   1.000000

 Extrapolation method: ASPC


 SCF WAVEFUNCTION OPTIMIZATION

  Step     Update method      Time    Convergence         Total energy    Change
  ------------------------------------------------------------------------------
     1 Broy./Diag. 0.40E+00    1.3     0.00016018     -2273.7393009780 -2.27E+03
     2 Broy./Diag. 0.40E+00    1.5     0.00001592     -2273.7397120134 -4.11E-04
     3 Broy./Diag. 0.40E+00    1.5     0.00001014     -2273.7394032819  3.09E-04
     4 Broy./Diag. 0.40E+00    1.5     0.00000053     -2273.7392990889  1.04E-04
     5 Broy./Diag. 0.40E+00    1.5     0.00000026     -2273.7393018112 -2.72E-06
     6 Broy./Diag. 0.40E+00    1.5     0.00000014     -2273.7393020760 -2.65E-07
     7 Broy./Diag. 0.40E+00    1.5     0.00000006     -2273.7393014048  6.71E-07

  *** SCF run converged in     7 steps ***


  Electronic density on regular grids:       -863.9999999854        0.0000000146
  Core density on regular grids:              863.9999999394       -0.0000000606
  Total charge density on r-space grids:       -0.0000000460
  Total charge density g-space grids:          -0.0000000460

  Overlap energy of the core charge distribution:               0.00000000000000
  Self energy of the core charge distribution:              -4874.59800185261429
  Core Hamiltonian energy:                                   1139.56648448570991
  Hartree energy:                                            1845.54459654208404
  Exchange-correlation energy:                               -384.25238057996910

  Total energy:                                             -2273.73930140478933

 !-----------------------------------------------------------------------------!
                     Mulliken Population Analysis

 #  Atom  Element  Kind  Atomic population                           Net charge
       1     Ar       1          7.999950                              0.000050
       2     Ar       1          8.000031                             -0.000031
       3     Ar       1          7.999983                              0.000017
       4     Ar       1          7.999992                              0.000008
       5     Ar       1          8.000004                             -0.000004
       6     Ar       1          7.999980                              0.000020
       7     Ar       1          8.000075                             -0.000075
       8     Ar       1          8.000066                             -0.000066
       9     Ar       1          7.999955                              0.000045
      10     Ar       1          7.999948                              0.000052
      11     Ar       1          7.999936                              0.000064
      12     Ar       1          8.000030                             -0.000030
      13     Ar       1          8.000025                             -0.000025
      14     Ar       1          8.000011                             -0.000011
      15     Ar       1          8.000034                             -0.000034
      16     Ar       1          8.000069                             -0.000069
      17     Ar       1          8.000028                             -0.000028
      18     Ar       1          8.000002                             -0.000002
      19     Ar       1          7.999990                              0.000010
      20     Ar       1          7.999898                              0.000102
      21     Ar       1          7.999969                              0.000031
      22     Ar       1          7.999985                              0.000015
      23     Ar       1          7.999969                              0.000031
      24     Ar       1          7.999962                              0.000038
      25     Ar       1          8.000003                             -0.000003
      26     Ar       1          7.999980                              0.000020
      27     Ar       1          8.000083                             -0.000083
      28     Ar       1          7.999938                              0.000062
      29     Ar       1          8.000050                             -0.000050
      30     Ar       1          7.999932                              0.000068
      31     Ar       1          8.000022                             -0.000022
      32     Ar       1          8.000084                             -0.000084
      33     Ar       1          7.999989                              0.000011
      34     Ar       1          7.999965                              0.000035
      35     Ar       1          7.999997                              0.000003
      36     Ar       1          8.000001                             -0.000001
      37     Ar       1          7.999922                              0.000078
      38     Ar       1          7.999844                              0.000156
      39     Ar       1          8.000014                             -0.000014
      40     Ar       1          7.999986                              0.000014
      41     Ar       1          7.999983                              0.000017
      42     Ar       1          8.000022                             -0.000022
      43     Ar       1          8.000015                             -0.000015
      44     Ar       1          8.000043                             -0.000043
      45     Ar       1          8.000023                             -0.000023
      46     Ar       1          7.999961                              0.000039
      47     Ar       1          7.999982                              0.000018
      48     Ar       1          7.999971                              0.000029
      49     Ar       1          7.999975                              0.000025
      50     Ar       1          7.999996                              0.000004
      51     Ar       1          7.999992                              0.000008
      52     Ar       1          8.000066                             -0.000066
      53     Ar       1          7.999985                              0.000015
      54     Ar       1          8.000080                             -0.000080
      55     Ar       1          8.000020                             -0.000020
      56     Ar       1          8.000020                             -0.000020
      57     Ar       1          8.000032                             -0.000032
      58     Ar       1          7.999995                              0.000005
      59     Ar       1          7.999936                              0.000064
      60     Ar       1          7.999970                              0.000030
      61     Ar       1          7.999926                              0.000074
      62     Ar       1          8.000002                             -0.000002
      63     Ar       1          7.999951                              0.000049
      64     Ar       1          8.000000                              0.000000
      65     Ar       1          7.999996                              0.000004
      66     Ar       1          8.000005                             -0.000005
      67     Ar       1          8.000124                             -0.000124
      68     Ar       1          8.000032                             -0.000032
      69     Ar       1          8.000068                             -0.000068
      70     Ar       1          8.000017                             -0.000017
      71     Ar       1          8.000035                             -0.000035
      72     Ar       1          8.000001                             -0.000001
      73     Ar       1          8.000018                             -0.000018
      74     Ar       1          7.999961                              0.000039
      75     Ar       1          8.000033                             -0.000033
      76     Ar       1          8.000009                             -0.000009
      77     Ar       1          7.999981                              0.000019
      78     Ar       1          7.999990                              0.000010
      79     Ar       1          7.999975                              0.000025
      80     Ar       1          8.000026                             -0.000026
      81     Ar       1          7.999996                              0.000004
      82     Ar       1          7.999991                              0.000009
      83     Ar       1          8.000036                             -0.000036
      84     Ar       1          7.999921                              0.000079
      85     Ar       1          8.000004                             -0.000004
      86     Ar       1          7.999964                              0.000036
      87     Ar       1          8.000005                             -0.000005
      88     Ar       1          7.999967                              0.000033
      89     Ar       1          7.999981                              0.000019
      90     Ar       1          8.000066                             -0.000066
      91     Ar       1          8.000023                             -0.000023
      92     Ar       1          8.000036                             -0.000036
      93     Ar       1          7.999997                              0.000003
      94     Ar       1          7.999999                              0.000001
      95     Ar       1          7.999999                              0.000001
      96     Ar       1          7.999960                              0.000040
      97     Ar       1          8.000038                             -0.000038
      98     Ar       1          8.000045                             -0.000045
      99     Ar       1          8.000051                             -0.000051
     100     Ar       1          7.999990                              0.000010
     101     Ar       1          7.999941                              0.000059
     102     Ar       1          8.000094                             -0.000094
     103     Ar       1          7.999943                              0.000057
     104     Ar       1          7.999985                              0.000015
     105     Ar       1          8.000024                             -0.000024
     106     Ar       1          8.000022                             -0.000022
     107     Ar       1          7.999950                              0.000050
     108     Ar       1          8.000048                             -0.000048
 # Total charge                            864.000000                 -0.000000

 !-----------------------------------------------------------------------------!

 !-----------------------------------------------------------------------------!
                           Hirshfeld Charges

  #Atom  Element  Kind  Ref Charge     Population                    Net charge
      1       Ar     1       8.000          7.999                         0.001
      2       Ar     1       8.000          8.000                        -0.000
      3       Ar     1       8.000          8.000                         0.000
      4       Ar     1       8.000          8.000                         0.000
      5       Ar     1       8.000          8.000                         0.000
      6       Ar     1       8.000          8.000                        -0.000
      7       Ar     1       8.000          8.000                        -0.000
      8       Ar     1       8.000          8.000                         0.000
      9       Ar     1       8.000          8.000                         0.000
     10       Ar     1       8.000          8.000                         0.000
     11       Ar     1       8.000          8.000                         0.000
     12       Ar     1       8.000          8.000                         0.000
     13       Ar     1       8.000          8.000                        -0.000
     14       Ar     1       8.000          8.000                         0.000
     15       Ar     1       8.000          8.000                        -0.000
     16       Ar     1       8.000          8.000                        -0.000
     17       Ar     1       8.000          8.000                        -0.000
     18       Ar     1       8.000          8.000                        -0.000
     19       Ar     1       8.000          8.000                        -0.000
     20       Ar     1       8.000          8.000                         0.000
     21       Ar     1       8.000          8.000                         0.000
     22       Ar     1       8.000          8.000                        -0.000
     23       Ar     1       8.000          8.000                         0.000
     24       Ar     1       8.000          8.000                         0.000
     25       Ar     1       8.000          8.000                         0.000
     26       Ar     1       8.000          8.000                        -0.000
     27       Ar     1       8.000          8.000                        -0.000
     28       Ar     1       8.000          8.000                         0.000
     29       Ar     1       8.000          8.000                        -0.000
     30       Ar     1       8.000          8.000                         0.000
     31       Ar     1       8.000          8.000                        -0.000
     32       Ar     1       8.000          8.000                        -0.000
     33       Ar     1       8.000          8.000                         0.000
     34       Ar     1       8.000          8.000                        -0.000
     35       Ar     1       8.000          8.000                         0.000
     36       Ar     1       8.000          8.000                         0.000
     37       Ar     1       8.000          8.000                        -0.000
     38       Ar     1       8.000          8.000                         0.000
     39       Ar     1       8.000          8.000                        -0.000
     40       Ar     1       8.000          8.000                         0.000
     41       Ar     1       8.000          8.000                        -0.000
     42       Ar     1       8.000          8.000                        -0.000
     43       Ar     1       8.000          8.000                         0.000
     44       Ar     1       8.000          8.000                        -0.000
     45       Ar     1       8.000          8.000                         0.000
     46       Ar     1       8.000          8.000                        -0.000
     47       Ar     1       8.000          8.000                        -0.000
     48       Ar     1       8.000          8.000                         0.000
     49       Ar     1       8.000          8.000                        -0.000
     50       Ar     1       8.000          8.000                        -0.000
     51       Ar     1       8.000          8.000                        -0.000
     52       Ar     1       8.000          8.000                        -0.000
     53       Ar     1       8.000          8.000                        -0.000
     54       Ar     1       8.000          8.000                         0.000
     55       Ar     1       8.000          8.000                        -0.000
     56       Ar     1       8.000          8.000                        -0.000
[...]
     36       Ar     1       8.000          8.000                         0.000
     37       Ar     1       8.000          8.000                         0.000
     38       Ar     1       8.000          8.000                         0.000
     39       Ar     1       8.000          8.000                        -0.000
     40       Ar     1       8.000          8.000                         0.000
     41       Ar     1       8.000          8.000                         0.000
     42       Ar     1       8.000          8.000                        -0.000
     43       Ar     1       8.000          8.000                         0.000
     44       Ar     1       8.000          8.000                        -0.000
     45       Ar     1       8.000          8.000                         0.000
     46       Ar     1       8.000          8.000                        -0.000
     47       Ar     1       8.000          8.000                        -0.000
     48       Ar     1       8.000          8.000                         0.000
     49       Ar     1       8.000          8.000                         0.000
     50       Ar     1       8.000          8.000                         0.000
     51       Ar     1       8.000          8.000                        -0.000
     52       Ar     1       8.000          8.000                        -0.000
     53       Ar     1       8.000          8.000                        -0.000
     54       Ar     1       8.000          8.000                        -0.000
     55       Ar     1       8.000          8.000                        -0.000
     56       Ar     1       8.000          8.000                        -0.000
     57       Ar     1       8.000          8.000                         0.000
     58       Ar     1       8.000          8.000                         0.000
     59       Ar     1       8.000          8.000                         0.000
     60       Ar     1       8.000          8.000                        -0.000
     61       Ar     1       8.000          8.000                         0.000
     62       Ar     1       8.000          8.000                        -0.000
     63       Ar     1       8.000          8.000                         0.000
     64       Ar     1       8.000          8.000                         0.000
     65       Ar     1       8.000          8.000                        -0.000
     66       Ar     1       8.000          8.000                        -0.000
     67       Ar     1       8.000          8.000                         0.000
     68       Ar     1       8.000          8.000                         0.000
     69       Ar     1       8.000          8.000                         0.000
     70       Ar     1       8.000          8.000                        -0.000
     71       Ar     1       8.000          8.000                        -0.000
     72       Ar     1       8.000          8.000                        -0.000
     73       Ar     1       8.000          8.000                        -0.000
     74       Ar     1       8.000          8.000                        -0.000
     75       Ar     1       8.000          8.000                        -0.000
     76       Ar     1       8.000          8.000                        -0.000
     77       Ar     1       8.000          8.000                         0.000
     78       Ar     1       8.000          8.000                        -0.000
     79       Ar     1       8.000          8.000                        -0.000
     80       Ar     1       8.000          8.000                         0.000
     81       Ar     1       8.000          8.000                         0.000
     82       Ar     1       8.000          8.000                        -0.000
     83       Ar     1       8.000          8.000                        -0.000
     84       Ar     1       8.000          7.999                         0.001
     85       Ar     1       8.000          8.000                        -0.000
     86       Ar     1       8.000          8.000                        -0.000
     87       Ar     1       8.000          8.000                         0.000
     88       Ar     1       8.000          8.000                         0.000
     89       Ar     1       8.000          8.000                        -0.000
     90       Ar     1       8.000          8.000                         0.000
     91       Ar     1       8.000          8.000                        -0.000
     92       Ar     1       8.000          8.000                        -0.000
     93       Ar     1       8.000          8.000                        -0.000
     94       Ar     1       8.000          8.000                         0.000
     95       Ar     1       8.000          8.000                        -0.000
     96       Ar     1       8.000          8.000                        -0.000
     97       Ar     1       8.000          8.000                        -0.000
     98       Ar     1       8.000          8.000                        -0.000
     99       Ar     1       8.000          8.000                        -0.000
    100       Ar     1       8.000          8.000                        -0.000
    101       Ar     1       8.000          8.000                         0.000
    102       Ar     1       8.000          8.000                        -0.000
    103       Ar     1       8.000          8.000                        -0.000
    104       Ar     1       8.000          8.000                        -0.000
    105       Ar     1       8.000          8.000                        -0.000
    106       Ar     1       8.000          8.000                         0.000
    107       Ar     1       8.000          8.000                         0.000
    108       Ar     1       8.000          8.000                         0.000

  Total Charge                                                           -0.000
 !-----------------------------------------------------------------------------!

 ENERGY| Total FORCE_EVAL ( QS ) energy (a.u.):            -2273.733677718907074


 Centre of mass motion (COM):                            x =        0.0000017516
                                                         y =       -0.0000008962
                                                         z =       -0.0000007202

 *******************************************************************************
 ENSEMBLE TYPE                =                                              NVT
 STEP NUMBER                  =                                              100
 TIME [fs]                    =                                       100.000000
 CONSERVED QUANTITY [hartree] =                              -0.227363674532E+04

                                              INSTANTANEOUS             AVERAGES
 CPU TIME [s]                 =                        7.25                 7.66
 ENERGY DRIFT PER ATOM [K]    =         -0.165818362618E-02  -0.438248991316E-03
 POTENTIAL ENERGY[hartree]    =         -0.227373367772E+04  -0.227373663060E+04
 KINETIC ENERGY [hartree]     =          0.459593415754E-01   0.488676455619E-01
 TEMPERATURE [K]              =                      89.585               95.254
 *******************************************************************************


 -------------------------------------------------------------------------------
 -                                                                             -
 -                                DBCSR STATISTICS                             -
 -                                                                             -
 -------------------------------------------------------------------------------
 COUNTER                                    TOTAL       BLAS       SMM       ACC
 flops    13 x    16 x    13          14241470464     100.0%      0.0%      0.0%
 flops    13 x    13 x   112          81537508416     100.0%      0.0%      0.0%
 flops    13 x    13 x   128          93185723904     100.0%      0.0%      0.0%
 flops    13 x    13 x    96         139778585856     100.0%      0.0%      0.0%
 flops    13 x    32 x    13         370278232064     100.0%      0.0%      0.0%
 flops inhomo. stacks                           0       0.0%      0.0%      0.0%
 flops total                       699.021521E+09     100.0%      0.0%      0.0%
 flops max/rank                     96.662230E+09     100.0%      0.0%      0.0%
 matmuls inhomo. stacks                         0       0.0%      0.0%      0.0%
 matmuls total                           45483256     100.0%      0.0%      0.0%
 number of processed stacks                 63776     100.0%      0.0%      0.0%
 average stack size                                   713.2       0.0       0.0
 marketing flops                     1.733798E+12
 -------------------------------------------------------------------------------
 # multiplications                           1018
 max memory usage/rank             204.718080E+06
 # max total images/rank                        2
 # max 3D layers                                1
 # MPI messages exchanged                   73296
 MPI messages size (bytes):
  total size                        34.641367E+09
  min size                         269.568000E+03
  max size                           1.181648E+06
  average size                     472.622875E+03
 MPI breakdown and total messages size (bytes):
             size <=      128                   0                        0
       128 < size <=     8192                   0                        0
      8192 < size <=    32768                   0                        0
     32768 < size <=   131072                   0                        0
    131072 < size <=  4194304               73296              34641384960
   4194304 < size <= 16777216                   0                        0
  16777216 < size                               0                        0
 -------------------------------------------------------------------------------

 *** WARNING in dbcsr/mm/dbcsr_mm.F:268 :: Using a non-square number of ***
 *** MPI ranks might lead to poor performance.                          ***
 *** Used ranks: 8                                                      ***
 *** Suggested: 9 16                                                    ***

 -------------------------------------------------------------------------------

 MEMORY| Estimated peak process memory [MiB]                                 196

 -------------------------------------------------------------------------------
 ----                             MULTIGRID INFO                            ----
 -------------------------------------------------------------------------------
 count for grid        1:         825690          cutoff [a.u.]           50.00
 count for grid        2:         711905          cutoff [a.u.]           16.67
 count for grid        3:         348995          cutoff [a.u.]            5.56
 count for grid        4:              0          cutoff [a.u.]            1.85
 total gridlevel count  :        1886590

 -------------------------------------------------------------------------------
 -                                                                             -
 -                         MESSAGE PASSING PERFORMANCE                         -
 -                                                                             -
 -------------------------------------------------------------------------------

 ROUTINE             CALLS      AVE VOLUME [Bytes]
 MP_Group              923
 MP_Bcast              997                 236954.
 MP_Allreduce        13369                    566.
 MP_Sync                 4
 MP_Alltoall         29062                1313427.
 MP_ISendRecv        22176                  97280.
 MP_Wait             92940
 MP_ISend            41952                 276992.
 MP_IRecv            41952                 272876.
 MP_Recv              1212                 359424.
 MP_Memory           62488
 -------------------------------------------------------------------------------


 -------------------------------------------------------------------------------
 -                                                                             -
 -                           R E F E R E N C E S                               -
 -                                                                             -
 -------------------------------------------------------------------------------
 
 CP2K version 6.1, the CP2K developers group (2018).
 CP2K is freely available from https://www.cp2k.org/ .

 Schuett, Ole; Messmer, Peter; Hutter, Juerg; VandeVondele, Joost. 
 Electronic Structure Calculations on Graphics Processing Units, John Wiley & Sons, Ltd, 173-190 (2016). 
 GPU-Accelerated Sparse Matrix-Matrix Multiplication for Linear Scaling Density Functional Theory.
 http://dx.doi.org/10.1002/9781118670712.ch8


 Borstnik, U; VandeVondele, J; Weber, V; Hutter, J. 
 PARALLEL COMPUTING, 40 (5-6), 47-58 (2014). 
 Sparse matrix multiplication: The distributed block-compressed sparse
 row library.
 http://dx.doi.org/10.1016/j.parco.2014.03.012


 Hutter, J; Iannuzzi, M; Schiffmann, F; VandeVondele, J. 
 WILEY INTERDISCIPLINARY REVIEWS-COMPUTATIONAL MOLECULAR SCIENCE, 4 (1), 15-25 (2014). 
 CP2K: atomistic simulations of condensed matter systems.
 http://dx.doi.org/10.1002/wcms.1159


 Krack, M. 
 THEORETICAL CHEMISTRY ACCOUNTS, 114 (1-3), 145-152 (2005). 
 Pseudopotentials for H to Kr optimized for gradient-corrected
 exchange-correlation functionals.
 http://dx.doi.org/10.1007/s00214-005-0655-y


 VandeVondele, J; Krack, M; Mohamed, F; Parrinello, M; Chassaing, T;
 Hutter, J. COMPUTER PHYSICS COMMUNICATIONS, 167 (2), 103-128 (2005). 
 QUICKSTEP: Fast and accurate density functional calculations using a
 mixed Gaussian and plane waves approach.
 http://dx.doi.org/10.1016/j.cpc.2004.12.014


 Frigo, M; Johnson, SG. 
 PROCEEDINGS OF THE IEEE, 93 (2), 216-231 (2005). 
 The design and implementation of FFTW3.
 http://dx.doi.org/10.1109/JPROC.2004.840301


 Kolafa, J. 
 JOURNAL OF COMPUTATIONAL CHEMISTRY, 25 (3), 335-342 (2004). 
 Time-reversible always stable predictor-corrector method for molecular dynamics of polarizable molecules.
 http://dx.doi.org/10.1002/jcc.10385


 Hartwigsen, C; Goedecker, S; Hutter, J. 
 PHYSICAL REVIEW B, 58 (7), 3641-3662 (1998). 
 Relativistic separable dual-space Gaussian pseudopotentials from H to Rn.
 http://dx.doi.org/10.1103/PhysRevB.58.3641


 Lippert, G; Hutter, J; Parrinello, M. 
 MOLECULAR PHYSICS, 92 (3), 477-487 (1997). 
 A hybrid Gaussian and plane wave density functional scheme.
 http://dx.doi.org/10.1080/002689797170220


 Goedecker, S; Teter, M; Hutter, J. 
 PHYSICAL REVIEW B, 54 (3), 1703-1710 (1996). 
 Separable dual-space Gaussian pseudopotentials.
 http://dx.doi.org/10.1103/PhysRevB.54.1703


 NOSE, S. JOURNAL OF CHEMICAL PHYSICS, 81 (1), 511-519 (1984). 
 A UNIFIED FORMULATION OF THE CONSTANT TEMPERATURE MOLECULAR-DYNAMICS
 METHODS.
 http://dx.doi.org/10.1063/1.447334


 NOSE, S. MOLECULAR PHYSICS, 52 (2), 255-268 (1984). 
 A MOLECULAR-DYNAMICS METHOD FOR SIMULATIONS IN THE CANONICAL ENSEMBLE.
 http://dx.doi.org/10.1080/00268978400101201


 -------------------------------------------------------------------------------
 -                                                                             -
 -                                T I M I N G                                  -
 -                                                                             -
 -------------------------------------------------------------------------------
 SUBROUTINE                       CALLS  ASD         SELF TIME        TOTAL TIME
                                MAXIMUM       AVERAGE  MAXIMUM  AVERAGE  MAXIMUM
 CP2K                                 1  1.0    0.003    0.005  766.391  766.392
 qs_mol_dyn_low                       1  2.0    0.004    0.004  766.301  766.308
 qs_forces                          101  4.0    0.007    0.007  766.097  766.097
 qs_energies                        101  5.0    0.009    0.011  743.673  743.752
 velocity_verlet                    100  3.0    0.012    0.013  738.464  738.483
 scf_env_do_scf                     101  6.0    0.010    0.017  637.043  637.166
 scf_env_do_scf_inner_loop          427  7.0    0.047    0.224  637.030  637.146
 qs_scf_new_mos                     427  8.0    0.011    0.012  492.068  492.470
 eigensolver                        427  9.0    0.030    0.036  470.268  470.489
 cp_fm_syevd                        427 10.0    0.005    0.006  326.408  326.470
 cp_fm_syevd_base                   427 11.0  326.402  326.463  326.402  326.463
 cp_fm_cholesky_restore            1281 10.0  141.152  141.527  141.152  141.527
 pw_transfer                       6763 11.7    0.590    0.607   89.327   90.282
 init_scf_run                       101  6.0    0.008    0.012   88.698   88.746
 fft_wrap_pw1pw2                   5707 12.7    0.079    0.087   86.217   87.099
 rebuild_ks_matrix                  528  8.4    0.002    0.003   86.898   86.925
 qs_ks_build_kohn_sham_matrix       528  9.4    0.101    0.110   86.895   86.923
 fft_wrap_pw1pw2_50                2539 13.1    8.923    9.058   81.169   82.805
 scf_env_initial_rho_setup          101  7.0    0.003    0.009   82.116   82.175
 wfi_extrapolate                    101  8.0    0.016    0.044   78.169   78.169
 qs_ks_update_qs_env                427  8.0    0.004    0.004   67.916   68.043
 qs_rho_update_rho                  528  8.2    0.006    0.006   67.393   67.614
 calculate_rho_elec                 528  9.2   11.898   12.164   67.387   67.608
 fft3d_ps                          5707 14.7   38.789   40.354   62.353   63.310
 sum_up_and_integrate               528 10.4    0.642    0.704   51.812   51.914
 integrate_v_rspace                 528 11.4   14.316   14.596   51.169   51.321
 density_rs2pw                      528 10.2    0.040    0.042   50.300   50.799
 dbcsr_multiply_generic            1018 10.8    0.073    0.077   38.754   41.442
 multiply_cannon                   1018 11.8    0.124    0.131   33.335   36.129
 potential_pw2rs                    528 12.4    0.050    0.053   34.652   34.785
 rs_pw_transfer                    4628 12.0    0.093    0.100   34.134   34.427
 multiply_cannon_multrec           4072 12.8   29.414   32.412   29.428   32.430
 cp_dbcsr_sm_fm_multiply            390  9.0    0.014    0.015   25.984   26.019
 cp_gemm                            780  9.0    0.003    0.004   23.336   23.416
 cp_gemm_fm_gemm                    780 10.0    0.002    0.003   23.333   23.413
 cp_fm_gemm                         780 11.0   23.331   23.411   23.331   23.411
 cp_dbcsr_plus_fm_fm_t_native       628  9.6    0.015    0.018   21.967   22.727
 cp_dbcsr_sm_fm_multiply_core       390 10.0    0.002    0.002   20.023   22.412
 gspace_mixing                      326  7.9    0.154    0.159   20.481   20.484
 qs_ks_update_qs_env_forces         101  5.0    0.001    0.001   19.531   19.536
 calculate_dm_sparse                527  9.0    0.004    0.005   18.330   18.918
 rs_pw_transfer_PW2RS_50            730 13.3   10.148   10.869   17.117   17.525
 copy_dbcsr_to_fm                   918  9.2    0.025    0.028   13.022   15.520
 -------------------------------------------------------------------------------

 The number of warnings for this run is : 1
 
 -------------------------------------------------------------------------------
  **** **** ******  **  PROGRAM ENDED AT                 2022-05-24 22:53:10.549
 ***** ** ***  *** **   PROGRAM RAN ON                            nick-ubuntu-vm
 **    ****   ******    PROGRAM RAN BY                                      nick
 ***** **    ** ** **   PROGRAM PROCESS ID                                  3012
  **** **  *******  **  PROGRAM STOPPED IN /home/nick/Documents/gitlab/pymatgen/
                                           cp2k_simulations/ar108/output
