#     Step Nr.          Time[fs]        Kin.[a.u.]          Temp[K]            Pot.[a.u.]        Cons Qty[a.u.]        UsedTime[s]
         0            0.000000         0.000950045       100.000000000        -0.898989598        -0.897089509         0.000000000
         1            1.000000         0.011977938      1260.776414327        -0.911804369        -0.898867686         0.119459540
         2            2.000000         0.016699452      1757.754541194        -0.909041192        -0.891366717         0.062712358
         3            3.000000         0.019595749      2062.613554678        -0.910097472        -0.889513394         0.069682380
         4            4.000000         0.024707830      2600.702090274        -0.903945916        -0.878236203         0.075188245
         5            5.000000         0.032601754      3431.602476848        -0.927046805        -0.893425792         0.099227387
         6            6.000000         0.044058814      4637.552139291        -0.903052407        -0.857953889         0.082286957
         7            7.000000         0.062719566      6601.749650895        -0.916084357        -0.852285696         0.078434583
         8            8.000000         0.075090660      7903.908896883        -0.916796821        -0.840551752         0.073406554
         9            9.000000         0.052563678      5532.758935031        -0.926682715        -0.872870508         0.066614305
        10           10.000000         0.044602833      4694.814613135        -0.942399337        -0.896461490         0.062315183
        11           11.000000         0.080710770      8495.471608995        -0.933205021        -0.851030748         0.066525680
        12           12.000000         0.132955603     13994.669533484        -0.940270382        -0.805572456         0.070911735
        13           13.000000         0.153223749     16128.058447820        -0.952205533        -0.796747005         0.063765984
        14           14.000000         0.165415434     17411.333509519        -0.962178418        -0.793811554         0.069178334
        15           15.000000         0.201837138     21245.017105227        -0.967452295        -0.761568837         0.079279036
        16           16.000000         0.201009064     21157.855449306        -0.984005735        -0.777355602         0.067990967
        17           17.000000         0.195546047     20582.828019295        -0.981985774        -0.778820225         0.059362477
        18           18.000000         0.167217309     17600.995598952        -0.987168235        -0.810282339         0.059416136
        19           19.000000         0.148734849     15655.564806577        -0.982960196        -0.822582155         0.066726967
        20           20.000000         0.174902858     18409.962780430        -0.986310156        -0.797452213         0.060606348
        21           21.000000         0.152189787     16019.225452548        -0.962931389        -0.794290301         0.105344277
        22           22.000000         0.175728371     18496.854800689        -0.965258908        -0.770712771         0.070169813
        23           23.000000         0.162210870     17074.026835351        -0.961053287        -0.777636518         0.062656834
        24           24.000000         0.084441621      8888.174387960        -0.948166361        -0.840675936         0.063600042
        25           25.000000         0.047313847      4980.171139205        -0.956915229        -0.885564598         0.070735364
        26           26.000000         0.061436159      6466.660539658        -0.936726952        -0.850495375         0.074526173
        27           27.000000         0.098503640     10368.317436423        -0.931853583        -0.807502790         0.069542116
        28           28.000000         0.090725705      9549.625838335        -0.939055960        -0.821292939         0.055758807
        29           29.000000         0.053205892      5600.357236022        -0.924297109        -0.843168146         0.066543162
        30           30.000000         0.042424633      4465.541234689        -0.935512375        -0.864537888         0.075495891
        31           31.000000         0.063880438      6723.940897011        -0.922359622        -0.829182996         0.078154197
        32           32.000000         0.087010399      9158.559335500        -0.933109311        -0.815741082         0.077710895
        33           33.000000         0.074122657      7802.018611267        -0.917465444        -0.811823050         0.076077683
        34           34.000000         0.043310094      4558.743202559        -0.925636140        -0.849918602         0.075483167
        35           35.000000         0.048083654      5061.199613287        -0.910540320        -0.829331867         0.076728201
        36           36.000000         0.075454909      7942.249141082        -0.916006096        -0.806451643         0.086236824
        37           37.000000         0.093897444      9883.477488536        -0.920294295        -0.790948400         0.088818155
        38           38.000000         0.072027036      7581.437330344        -0.918715069        -0.809854533         0.071093335
        39           39.000000         0.052662254      5543.134904650        -0.915403600        -0.824783460         0.072506284
        40           40.000000         0.048465290      5101.369970910        -0.920815211        -0.833480181         0.063354983
        41           41.000000         0.074312976      7822.051242871        -0.912286873        -0.797973267         0.068860587
        42           42.000000         0.103596449     10904.377420242        -0.935876918        -0.790608870         0.067793407
        43           43.000000         0.085065120      8953.802816741        -0.923509427        -0.794959239         0.062270228
        44           44.000000         0.062479535      6576.484384458        -0.927178412        -0.819703419         0.067327011
        45           45.000000         0.042074613      4428.698667905        -0.949400143        -0.861254565         0.056199705
        46           46.000000         0.053199880      5599.724440074        -0.941008259        -0.840802717         0.065773057
        47           47.000000         0.069005135      7263.357434083        -0.944218477        -0.826941043         0.060952507
        48           48.000000         0.107667994     11332.940957835        -0.956839936        -0.798950325         0.061760512
        49           49.000000         0.137944150     14519.755174991        -0.971229374        -0.780319262         0.058808616
        50           50.000000         0.134782327     14186.947246034        -0.974833522        -0.784158140         0.063255045
        51           51.000000         0.146892323     15461.623860279        -1.008456057        -0.802723879         0.055984541
        52           52.000000         0.150133801     15802.816016673        -1.030018546        -0.817753737         0.055891565
        53           53.000000         0.207848675     21877.780693347        -1.045755819        -0.771755441         0.051880063
        54           54.000000         0.236307895     24873.347457791        -1.083666999        -0.776468540         0.053696179
        55           55.000000         0.159309713     16768.656144604        -1.088978926        -0.854942184         0.060008798
        56           56.000000         0.161805025     17031.308254133        -1.118335252        -0.879334284         0.063209128
        57           57.000000         0.238180146     25070.417259139        -1.113039287        -0.794960060         0.059857273
        58           58.000000         0.308255036     32446.375162020        -1.127829739        -0.735749852         0.058429435
        59           59.000000         0.298117162     31379.280669891        -1.111525543        -0.724607212         0.066554592
        60           60.000000         0.228536967     24055.393470281        -1.101420733        -0.779109939         0.070974652
        61           61.000000         0.193036955     20318.725544105        -1.063640511        -0.772354059         0.066087417
        62           62.000000         0.160751151     16920.379332862        -1.046682702        -0.783513128         0.055406215
        63           63.000000         0.137184541     14439.800068023        -1.027946658        -0.784535937         0.072748468
        64           64.000000         0.111491941     11735.442802165        -1.030560027        -0.809519097         0.079914698
        65           65.000000         0.060317418      6348.903797494        -1.016486302        -0.844283340         0.071882814
        66           66.000000         0.057923560      6096.930539036        -1.008536999        -0.837069627         0.057833869
        67           67.000000         0.068776037      7239.243007053        -0.994825439        -0.810674199         0.055142390
        68           68.000000         0.080648511      8488.918396946        -1.000777312        -0.802478920         0.056285294
        69           69.000000         0.100287852     10556.120429243        -1.012044926        -0.791266783         0.062310393
        70           70.000000         0.094013873      9895.732589065        -1.001896186        -0.784359328         0.064713269
        71           71.000000         0.067015393      7053.920757666        -1.012839073        -0.819891392         0.061414023
        72           72.000000         0.053424859      5623.405372349        -1.028853358        -0.847757869         0.055499570
        73           73.000000         0.077164047      8122.149873501        -1.029260081        -0.822576313         0.057672766
        74           74.000000         0.082983515      8734.696694073        -1.047804318        -0.833044887         0.067062014
        75           75.000000         0.074762075      7869.322644739        -1.067428880        -0.858615704         0.067668792
        76           76.000000         0.081945719      8625.460239836        -1.085211042        -0.866851049         0.064277362
        77           77.000000         0.085215282      8969.608606112        -1.132709736        -0.908511689         0.057842634
        78           78.000000         0.089472443      9417.709757381        -1.142078610        -0.910953220         0.063205291
        79           79.000000         0.093367796      9827.727601254        -1.110083465        -0.872240518         0.067682077
        80           80.000000         0.088421807      9307.121681114        -0.997369746        -0.762648860         0.065432477
        81           81.000000         0.202964559     21363.687348478        -1.130542955        -0.780135100         0.069091219
        82           82.000000         0.151712501     15968.987178037        -1.075629273        -0.775133011         0.069808525
        83           83.000000         0.152171511     16017.301758977        -1.038544327        -0.736218546         0.080360883
        84           84.000000         0.154949405     16309.697927927        -1.027460089        -0.720170833         0.081406664
        85           85.000000         0.121425057     12780.984847146        -1.013724989        -0.736949642         0.064436568
        86           86.000000         0.147253099     15499.598447984        -1.057593405        -0.751288393         0.057469685
        87           87.000000         0.181077069     19059.849206634        -1.065806262        -0.721020749         0.064148431
        88           88.000000         0.215277382     22659.713216140        -1.116695825        -0.731849021         0.068333479
        89           89.000000         0.195095842     20535.440245044        -1.114674333        -0.743422739         0.066876404
        90           90.000000         0.198698953     20914.697296553        -1.139395454        -0.757885326         0.071591859
        91           91.000000         0.187480878     19733.902798192        -1.122510011        -0.745624154         0.068358195
        92           92.000000         0.120526627     12686.417691680        -1.091147867        -0.775859411         0.069769952
        93           93.000000         0.070130461      7381.807223432        -1.059694951        -0.791506972         0.067167031
        94           94.000000         0.059951250      6310.361635260        -1.050724588        -0.790690703         0.061767524
        95           95.000000         0.054489194      5735.435329537        -1.035360646        -0.779248695         0.062628138
        96           96.000000         0.049499834      5210.264165608        -1.052228719        -0.799955378         0.057322950
        97           97.000000         0.065465470      6890.778580135        -1.084679331        -0.815483197         0.063119239
        98           98.000000         0.112528638     11844.563676757        -1.103212744        -0.785770045         0.067278509
        99           99.000000         0.130712419     13758.556072271        -1.135708598        -0.798511443         0.100130639
       100          100.000000         0.079631076      8381.824998790        -1.078967114        -0.791402120         0.086358601
