 DBCSR| Multiplication driver                                               BLAS
 DBCSR| Multrec recursion limit                                              512
 DBCSR| Multiplication stack size                                           1000
 DBCSR| Maximum elements for images                                    UNLIMITED
 DBCSR| Multiplicative factor virtual images                                   1
 DBCSR| Multiplication size stacks                                             3
 DBCSR| Number of 3D layers                                               SINGLE
 DBCSR| Use MPI memory allocation                                              T
 DBCSR| Use RMA algorithm                                                      F
 DBCSR| Use Communication thread                                               T
 DBCSR| Communication thread load                                             87


  **** **** ******  **  PROGRAM STARTED AT               2022-05-22 21:13:29.284
 ***** ** ***  *** **   PROGRAM STARTED ON                        nick-ubuntu-vm
 **    ****   ******    PROGRAM STARTED BY                                  nick
 ***** **    ** ** **   PROGRAM PROCESS ID                                 87111
  **** **  *******  **  PROGRAM STARTED IN /home/nick/Documents/gitlab/pymatgen/
                                           cp2k_simulations/h2/output

 CP2K| version string:                                          CP2K version 6.1
 CP2K| source code revision number:                                    svn:18464
 CP2K| cp2kflags: libint fftw3 libxc elpa=201605 elpa_qr parallel mpi3 scalapack
 CP2K|             libderiv_max_am1=5 libint_max_am=6
 CP2K| is freely available from                            https://www.cp2k.org/
 CP2K| Program compiled at                          Sun Mar 22 16:45:27 UTC 2020
 CP2K| Program compiled on                                       lcy01-amd64-017
 CP2K| Program compiled for                                Linux-x86_64-gfortran
 CP2K| Data directory path                                       /usr/share/cp2k
 CP2K| Input file name                                             ../src/h2.inp

 GLOBAL| Force Environment number                                              1
 GLOBAL| Basis set file name                                           BASIS_SET
 GLOBAL| Potential file name                                      GTH_POTENTIALS
 GLOBAL| MM Potential file name                                     MM_POTENTIAL
 GLOBAL| Coordinate file name                                      __STD_INPUT__
 GLOBAL| Method name                                                        CP2K
 GLOBAL| Project name                                                         h2
 GLOBAL| Preferred FFT library                                             FFTW3
 GLOBAL| Preferred diagonalization lib.                                       SL
 GLOBAL| Run type                                                             MD
 GLOBAL| All-to-all communication in single precision                          F
 GLOBAL| FFTs using library dependent lengths                                  F
 GLOBAL| Global print level                                               MEDIUM
 GLOBAL| Total number of message passing processes                             4
 GLOBAL| Number of threads for this process                                    1
 GLOBAL| This output is from process                                           0
 GLOBAL| CPU model name :  AMD Ryzen 7 5800H with Radeon Graphics

 MEMORY| system memory details [Kb]
 MEMORY|                        rank 0           min           max       average
 MEMORY| MemTotal              8043988       8043988       8043988       8043988
 MEMORY| MemFree               1425816       1425816       1425816       1425816
 MEMORY| Buffers                229864        229864        229864        229864
 MEMORY| Cached                3513336       3513336       3513336       3513336
 MEMORY| Slab                   363152        363152        363152        363152
 MEMORY| SReclaimable           267364        267364        267364        267364
 MEMORY| MemLikelyFree         5436380       5436380       5436380       5436380


 *** Fundamental physical constants (SI units) ***

 *** Literature: B. J. Mohr and B. N. Taylor,
 ***             CODATA recommended values of the fundamental physical
 ***             constants: 2006, Web Version 5.1
 ***             http://physics.nist.gov/constants

 Speed of light in vacuum [m/s]                             2.99792458000000E+08
 Magnetic constant or permeability of vacuum [N/A**2]       1.25663706143592E-06
 Electric constant or permittivity of vacuum [F/m]          8.85418781762039E-12
 Planck constant (h) [J*s]                                  6.62606896000000E-34
 Planck constant (h-bar) [J*s]                              1.05457162825177E-34
 Elementary charge [C]                                      1.60217648700000E-19
 Electron mass [kg]                                         9.10938215000000E-31
 Electron g factor [ ]                                     -2.00231930436220E+00
 Proton mass [kg]                                           1.67262163700000E-27
 Fine-structure constant                                    7.29735253760000E-03
 Rydberg constant [1/m]                                     1.09737315685270E+07
 Avogadro constant [1/mol]                                  6.02214179000000E+23
 Boltzmann constant [J/K]                                   1.38065040000000E-23
 Atomic mass unit [kg]                                      1.66053878200000E-27
 Bohr radius [m]                                            5.29177208590000E-11

 *** Conversion factors ***

 [u] -> [a.u.]                                              1.82288848426455E+03
 [Angstrom] -> [Bohr] = [a.u.]                              1.88972613288564E+00
 [a.u.] = [Bohr] -> [Angstrom]                              5.29177208590000E-01
 [a.u.] -> [s]                                              2.41888432650478E-17
 [a.u.] -> [fs]                                             2.41888432650478E-02
 [a.u.] -> [J]                                              4.35974393937059E-18
 [a.u.] -> [N]                                              8.23872205491840E-08
 [a.u.] -> [K]                                              3.15774647902944E+05
 [a.u.] -> [kJ/mol]                                         2.62549961709828E+03
 [a.u.] -> [kcal/mol]                                       6.27509468713739E+02
 [a.u.] -> [Pa]                                             2.94210107994716E+13
 [a.u.] -> [bar]                                            2.94210107994716E+08
 [a.u.] -> [atm]                                            2.90362800883016E+08
 [a.u.] -> [eV]                                             2.72113838565563E+01
 [a.u.] -> [Hz]                                             6.57968392072181E+15
 [a.u.] -> [1/cm] (wave numbers)                            2.19474631370540E+05
 [a.u./Bohr**2] -> [1/cm]                                   5.14048714338585E+03
 

 CELL_TOP| Volume [angstrom^3]:                                          125.000
 CELL_TOP| Vector a [angstrom     5.000     0.000     0.000    |a| =       5.000
 CELL_TOP| Vector b [angstrom     0.000     5.000     0.000    |b| =       5.000
 CELL_TOP| Vector c [angstrom     0.000     0.000     5.000    |c| =       5.000
 CELL_TOP| Angle (b,c), alpha [degree]:                                   90.000
 CELL_TOP| Angle (a,c), beta  [degree]:                                   90.000
 CELL_TOP| Angle (a,b), gamma [degree]:                                   90.000
 CELL_TOP| Numerically orthorhombic:                                         YES

 GENERATE| WARNING:: No connections detected for Hydrogen - Atom Nr:         1 !
 GENERATE| WARNING:: No connections detected for Hydrogen - Atom Nr:         2 !
 GENERATE|  Preliminary Number of Bonds generated:                             0
 GENERATE|  Achieved consistency in connectivity generation.

 CELL| Volume [angstrom^3]:                                              125.000
 CELL| Vector a [angstrom]:       5.000     0.000     0.000    |a| =       5.000
 CELL| Vector b [angstrom]:       0.000     5.000     0.000    |b| =       5.000
 CELL| Vector c [angstrom]:       0.000     0.000     5.000    |c| =       5.000
 CELL| Angle (b,c), alpha [degree]:                                       90.000
 CELL| Angle (a,c), beta  [degree]:                                       90.000
 CELL| Angle (a,b), gamma [degree]:                                       90.000
 CELL| Numerically orthorhombic:                                             YES

 CELL_REF| Volume [angstrom^3]:                                          125.000
 CELL_REF| Vector a [angstrom     5.000     0.000     0.000    |a| =       5.000
 CELL_REF| Vector b [angstrom     0.000     5.000     0.000    |b| =       5.000
 CELL_REF| Vector c [angstrom     0.000     0.000     5.000    |c| =       5.000
 CELL_REF| Angle (b,c), alpha [degree]:                                   90.000
 CELL_REF| Angle (a,c), beta  [degree]:                                   90.000
 CELL_REF| Angle (a,b), gamma [degree]:                                   90.000
 CELL_REF| Numerically orthorhombic:                                         YES

 *******************************************************************************
 *******************************************************************************
 **                                                                           **
 **     #####                         ##              ##                      **
 **    ##   ##            ##          ##              ##                      **
 **   ##     ##                       ##            ######                    **
 **   ##     ##  ##   ##  ##   #####  ##  ##   ####   ##    #####    #####    **
 **   ##     ##  ##   ##  ##  ##      ## ##   ##      ##   ##   ##  ##   ##   **
 **   ##  ## ##  ##   ##  ##  ##      ####     ###    ##   ######   ######    **
 **    ##  ###   ##   ##  ##  ##      ## ##      ##   ##   ##       ##        **
 **     #######   #####   ##   #####  ##  ##  ####    ##    #####   ##        **
 **           ##                                                    ##        **
 **                                                                           **
 **                                                ... make the atoms dance   **
 **                                                                           **
 **            Copyright (C) by CP2K developers group (2000 - 2018)           **
 **                                                                           **
 *******************************************************************************

 DFT| Spin restricted Kohn-Sham (RKS) calculation                            RKS
 DFT| Multiplicity                                                             1
 DFT| Number of spin states                                                    1
 DFT| Charge                                                                   0
 DFT| Self-interaction correction (SIC)                                       NO
 DFT| Cutoffs: density                                              1.000000E-10
 DFT|          gradient                                             1.000000E-10
 DFT|          tau                                                  1.000000E-10
 DFT|          cutoff_smoothing_range                               0.000000E+00
 DFT| XC density smoothing                                                  NONE
 DFT| XC derivatives                                                          PW
 FUNCTIONAL| ROUTINE=NEW
 FUNCTIONAL| PADE:
 FUNCTIONAL| S. Goedecker, M. Teter and J. Hutter, Phys. Rev. B 54, 1703 (1996) 

 QS| Method:                                                                 GPW
 QS| Density plane wave grid type                        NON-SPHERICAL FULLSPACE
 QS| Number of grid levels:                                                    4
 QS| Density cutoff [a.u.]:                                                 50.0
 QS| Multi grid cutoff [a.u.]: 1) grid level                                50.0
 QS|                           2) grid level                                16.7
 QS|                           3) grid level                                 5.6
 QS|                           4) grid level                                 1.9
 QS| Grid level progression factor:                                          3.0
 QS| Relative density cutoff [a.u.]:                                        15.0
 QS| Consistent realspace mapping and integration 
 QS| Interaction thresholds: eps_pgf_orb:                                1.0E-05
 QS|                         eps_filter_matrix:                          0.0E+00
 QS|                         eps_core_charge:                            1.0E-12
 QS|                         eps_rho_gspace:                             1.0E-10
 QS|                         eps_rho_rspace:                             1.0E-10
 QS|                         eps_gvg_rspace:                             1.0E-05
 QS|                         eps_ppl:                                    1.0E-02
 QS|                         eps_ppnl:                                   1.0E-07


 ATOMIC KIND INFORMATION

  1. Atomic kind: H                                     Number of atoms:       2

     Orbital Basis Set                                             DZVP-GTH-PADE

       Number of orbital shell sets:                                           2
       Number of orbital shells:                                               3
       Number of primitive Cartesian functions:                                5
       Number of Cartesian basis functions:                                    5
       Number of spherical basis functions:                                    5
       Norm type:                                                              2

       Normalised Cartesian orbitals:

                        Set   Shell   Orbital            Exponent    Coefficient

                          1       1    1s                8.374435      -0.083834
                                                         1.805868      -0.155208
                                                         0.485253      -0.104875
                                                         0.165824      -0.128813

                          1       2    2s                8.374435       0.000000
                                                         1.805868       0.000000
                                                         0.485253       0.000000
                                                         0.165824       0.185202

                          2       1    2px               0.700000       0.912668
                          2       1    2py               0.700000       0.912668
                          2       1    2pz               0.700000       0.912668

     GTH Potential information for                                   GTH-PADE-q1

       Description:                       Goedecker-Teter-Hutter pseudopotential
                                           Goedecker et al., PRB 54, 1703 (1996)
                                          Hartwigsen et al., PRB 58, 3641 (1998)
                                                      Krack, TCA 114, 145 (2005)

       Gaussian exponent of the core charge distribution:              12.500000
       Electronic configuration (s p d ...):                                   1

       Parameters of the local part of the GTH pseudopotential:

                          rloc        C1          C2          C3          C4
                        0.200000   -4.180237    0.725075


 MOLECULE KIND INFORMATION


 All atoms are their own molecule, skipping detailed information


 TOTAL NUMBERS AND MAXIMUM NUMBERS

  Total number of            - Atomic kinds:                                   1
                             - Atoms:                                          2
                             - Shell sets:                                     4
                             - Shells:                                         6
                             - Primitive Cartesian functions:                 10
                             - Cartesian basis functions:                     10
                             - Spherical basis functions:                     10

  Maximum angular momentum of- Orbital basis functions:                        1
                             - Local part of the GTH pseudopotential:          2


 MODULE QUICKSTEP:  ATOMIC COORDINATES IN angstrom

  Atom  Kind  Element       X           Y           Z          Z(eff)       Mass

       1     1 H    1    1.983475    3.928343    0.932479      1.00       1.0079
       2     1 H    1    3.934872    1.934857    2.982052      1.00       1.0079




 SCF PARAMETERS         Density guess:                                    ATOMIC
                        --------------------------------------------------------
                        max_scf:                                             300
                        max_scf_history:                                       0
                        max_diis:                                              4
                        --------------------------------------------------------
                        eps_scf:                                        1.00E-07
                        eps_scf_history:                                0.00E+00
                        eps_diis:                                       1.00E-01
                        eps_eigval:                                     1.00E-05
                        --------------------------------------------------------
                        level_shift [a.u.]:                                 0.00
                        --------------------------------------------------------
                        Mixing method:                            BROYDEN_MIXING
                                                charge density mixing in g-space
                        --------------------------------------------------------
                        No outer SCF

 PW_GRID| Information for grid number                                          1
 PW_GRID| Grid distributed over                                     4 processors
 PW_GRID| Real space group dimensions                                     4    1
 PW_GRID| the grid is blocked:                                                NO
 PW_GRID| Cutoff [a.u.]                                                     50.0
 PW_GRID| spherical cutoff:                                                   NO
 PW_GRID|   Bounds   1            -16      15                Points:          32
 PW_GRID|   Bounds   2            -16      15                Points:          32
 PW_GRID|   Bounds   3            -16      15                Points:          32
 PW_GRID| Volume element (a.u.^3)  0.2574E-01     Volume (a.u.^3)       843.5418
 PW_GRID| Grid span                                                    FULLSPACE
 PW_GRID|   Distribution                         Average         Max         Min
 PW_GRID|   G-Vectors                             8192.0        8192        8192
 PW_GRID|   G-Rays                                 256.0         256         256
 PW_GRID|   Real Space Points                     8192.0        8192        8192

 PW_GRID| Information for grid number                                          2
 PW_GRID| Grid distributed over                                     4 processors
 PW_GRID| Real space group dimensions                                     4    1
 PW_GRID| the grid is blocked:                                                NO
 PW_GRID| Cutoff [a.u.]                                                     16.7
 PW_GRID| spherical cutoff:                                                   NO
 PW_GRID|   Bounds   1             -9       8                Points:          18
 PW_GRID|   Bounds   2             -9       8                Points:          18
 PW_GRID|   Bounds   3             -9       8                Points:          18
 PW_GRID| Volume element (a.u.^3)  0.1446         Volume (a.u.^3)       843.5418
 PW_GRID| Grid span                                                    FULLSPACE
 PW_GRID|   Distribution                         Average         Max         Min
 PW_GRID|   G-Vectors                             1458.0        1476        1440
 PW_GRID|   G-Rays                                  81.0          82          80
 PW_GRID|   Real Space Points                     1458.0        1620        1296

 PW_GRID| Information for grid number                                          3
 PW_GRID| Grid distributed over                                     4 processors
 PW_GRID| Real space group dimensions                                     4    1
 PW_GRID| the grid is blocked:                                                NO
 PW_GRID| Cutoff [a.u.]                                                      5.6
 PW_GRID| spherical cutoff:                                                   NO
 PW_GRID|   Bounds   1             -6       5                Points:          12
 PW_GRID|   Bounds   2             -6       5                Points:          12
 PW_GRID|   Bounds   3             -6       5                Points:          12
 PW_GRID| Volume element (a.u.^3)  0.4882         Volume (a.u.^3)       843.5418
 PW_GRID| Grid span                                                    FULLSPACE
 PW_GRID|   Distribution                         Average         Max         Min
 PW_GRID|   G-Vectors                              432.0         468         408
 PW_GRID|   G-Rays                                  36.0          39          34
 PW_GRID|   Real Space Points                      432.0         432         432

 PW_GRID| Information for grid number                                          4
 PW_GRID| Grid distributed over                                     4 processors
 PW_GRID| Real space group dimensions                                     4    1
 PW_GRID| the grid is blocked:                                                NO
 PW_GRID| Cutoff [a.u.]                                                      1.9
 PW_GRID| spherical cutoff:                                                   NO
 PW_GRID|   Bounds   1             -3       2                Points:           6
 PW_GRID|   Bounds   2             -3       2                Points:           6
 PW_GRID|   Bounds   3             -3       2                Points:           6
 PW_GRID| Volume element (a.u.^3)   3.905         Volume (a.u.^3)       843.5418
 PW_GRID| Grid span                                                    FULLSPACE
 PW_GRID|   Distribution                         Average         Max         Min
 PW_GRID|   G-Vectors                               54.0          54          54
 PW_GRID|   G-Rays                                   9.0           9           9
 PW_GRID|   Real Space Points                       54.0          72          36

 POISSON| Solver                                                        PERIODIC
 POISSON| Periodicity                                                        XYZ

 RS_GRID| Information for grid number                                          1
 RS_GRID|   Bounds   1            -16      15                Points:          32
 RS_GRID|   Bounds   2            -16      15                Points:          32
 RS_GRID|   Bounds   3            -16      15                Points:          32
 RS_GRID| Real space fully replicated
 RS_GRID| Group size                                                           1

 RS_GRID| Information for grid number                                          2
 RS_GRID|   Bounds   1             -9       8                Points:          18
 RS_GRID|   Bounds   2             -9       8                Points:          18
 RS_GRID|   Bounds   3             -9       8                Points:          18
 RS_GRID| Real space fully replicated
 RS_GRID| Group size                                                           1

 RS_GRID| Information for grid number                                          3
 RS_GRID|   Bounds   1             -6       5                Points:          12
 RS_GRID|   Bounds   2             -6       5                Points:          12
 RS_GRID|   Bounds   3             -6       5                Points:          12
 RS_GRID| Real space fully replicated
 RS_GRID| Group size                                                           1

 RS_GRID| Information for grid number                                          4
 RS_GRID|   Bounds   1             -3       2                Points:           6
 RS_GRID|   Bounds   2             -3       2                Points:           6
 RS_GRID|   Bounds   3             -3       2                Points:           6
 RS_GRID| Real space fully replicated
 RS_GRID| Group size                                                           1

 MD| Molecular Dynamics Protocol 
 MD| Ensemble Type                                                           NVT
 MD| Number of Time Steps                                                    100
 MD| Time Step [fs]                                                         1.00
 MD| Temperature [K]                                                      100.00
 MD| Temperature tolerance [K]                                              0.00
 MD| Print MD information every                                        1 step(s)
 MD| File type     Print frequency[steps]                             File names
 MD| Coordinates            1                                       h2-pos-1.xyz
 MD| Velocities             1                                       h2-vel-1.xyz
 MD| Energies               1                                          h2-1.ener
 MD| Dump                  20                                       h2-1.restart

 ROT| Rotational Analysis Info 
 ROT| Principal axes and moments of inertia in atomic units:
 ROT|                                1                 2                 3
 ROT| EIGENVALUES            0.363797881E-11   0.393112504E+05   0.393112504E+05
 ROT|      X                    -0.563726540      -0.414178993       0.714610488
 ROT|      Y                     0.575885476       0.423112360       0.699522587
 ROT|      Z                    -0.592088091       0.805873248       0.000000000
 ROT| Numer of Rotovibrational vectors:     5
 ROT| Linear Molecule detected..

 Calculation of degrees of freedom
                                                      Number of atoms:         2
                                 Number of Intramolecular constraints:         0
                                 Number of Intermolecular constraints:         0
                                  Invariants(translation + rotations):         0
                                                   Degrees of freedom:         6


 Restraints Information
                                  Number of Intramolecular restraints:         0
                                  Number of Intermolecular restraints:         0

 THERMOSTAT| Thermostat Info for PARTICLES
 THERMOSTAT| Type of thermostat                               Nose-Hoover-Chains
 THERMOSTAT| Nose-Hoover-Chain length                                          3
 THERMOSTAT| Nose-Hoover-Chain time constant [  fs]                      1000.00
 THERMOSTAT| Order of Yoshida integrator                                       3
 THERMOSTAT| Number of multiple time steps                                     2
 THERMOSTAT| Initial Potential Energy                                   0.000000
 THERMOSTAT| Initial Kinetic Energy                                     0.000950
 THERMOSTAT| End of Thermostat Info for PARTICLES

 ************************** Velocities initialization **************************
 Initial Temperature                                                    100.00 K
 COM velocity:            0.000000000000      0.000000000000      0.000000000000
 *******************************************************************************


 Number of electrons:                                                          2
 Number of occupied orbitals:                                                  1
 Number of molecular orbitals:                                                 1

 Number of orbital functions:                                                 10
 Number of independent orbital functions:                                     10

 Extrapolation method: initial_guess

 Atomic guess: The first density matrix is obtained in terms of atomic orbitals
               and electronic configurations assigned to each atomic kind

 Guess for atomic kind: H

 Electronic structure
    Total number of core electrons                                          0.00
    Total number of valence electrons                                       1.00
    Total number of electrons                                               1.00
    Multiplicity                                                   not specified
    S      1.00


 *******************************************************************************
                  Iteration          Convergence                     Energy [au]
 *******************************************************************************
                          1        0.316011E-02                  -0.422390558413
                          2        0.333152E-03                  -0.422399635530
                          3        0.114302E-06                  -0.422399737491

 Energy components [Hartree]           Total Energy ::           -0.422399737491
                                        Band Energy ::           -0.193019372217
                                     Kinetic Energy ::            0.475009752129
                                   Potential Energy ::           -0.897409489620
                                      Virial (-V/T) ::            1.889244348347
                                        Core Energy ::           -0.478923189740
                                          XC Energy ::           -0.248206713182
                                     Coulomb Energy ::            0.304730165431
                       Total Pseudopotential Energy ::           -0.971460622099
                       Local Pseudopotential Energy ::           -0.971460622099
                    Nonlocal Pseudopotential Energy ::            0.000000000000
                                        Confinement ::            0.175276802303

 Orbital energies  State     L     Occupation   Energy[a.u.]          Energy[eV]

                       1     0          1.000      -0.193019           -5.252324


 Total Electron Density at R=0:                                         0.237353
 Re-scaling the density matrix to get the right number of electrons
                  # Electrons              Trace(P)               Scaling factor
                            2                 2.003                        0.998


 SCF WAVEFUNCTION OPTIMIZATION

  Step     Update method      Time    Convergence         Total energy    Change
  ------------------------------------------------------------------------------
     1 NoMix/Diag. 0.40E+00    0.0     0.83943955        -0.8724910642 -8.72E-01
     2 Broy./Diag. 0.40E+00    0.0     0.06501149        -0.9597618656 -8.73E-02
     3 Broy./Diag. 0.40E+00    0.0     0.19561345        -0.9422752419  1.75E-02
     4 Broy./Diag. 0.40E+00    0.0     0.15567946        -0.9027697439  3.95E-02
     5 Broy./Diag. 0.40E+00    0.0     0.00083770        -0.8990103621  3.76E-03
     6 Broy./Diag. 0.40E+00    0.0     0.00086012        -0.8992231467 -2.13E-04
     7 Broy./Diag. 0.40E+00    0.0     0.00004439        -0.8990007912  2.22E-04
     8 Broy./Diag. 0.40E+00    0.0     0.00001424        -0.8989800244  2.08E-05
     9 Broy./Diag. 0.40E+00    0.0     0.00000430        -0.8989855437 -5.52E-06
    10 Broy./Diag. 0.40E+00    0.0     0.00000216        -0.8989890789 -3.54E-06
    11 Broy./Diag. 0.40E+00    0.0     0.00000013        -0.8989895755 -4.97E-07
    12 Broy./Diag. 0.40E+00    0.0     0.00000003        -0.8989895905 -1.50E-08

  *** SCF run converged in    12 steps ***


  Electronic density on regular grids:         -2.0000023417       -0.0000023417
  Core density on regular grids:                2.0004182614        0.0004182614
  Total charge density on r-space grids:        0.0004159197
  Total charge density g-space grids:           0.0004159197

  Overlap energy of the core charge distribution:               0.00000000000000
  Self energy of the core charge distribution:                 -2.82094791773878
  Core Hamiltonian energy:                                      0.73503386108756
  Hartree energy:                                               1.65810257295248
  Exchange-correlation energy:                                 -0.47117810682284

  Total energy:                                                -0.89898959052158

 !-----------------------------------------------------------------------------!
                     Mulliken Population Analysis

 #  Atom  Element  Kind  Atomic population                           Net charge
       1     H        1          1.000273                             -0.000273
       2     H        1          0.999727                              0.000273
 # Total charge                              2.000000                 -0.000000

 !-----------------------------------------------------------------------------!

 !-----------------------------------------------------------------------------!
                           Hirshfeld Charges

  #Atom  Element  Kind  Ref Charge     Population                    Net charge
      1       H      1       1.000          0.771                         0.229
      2       H      1       1.000          0.770                         0.230

  Total Charge                                                            0.459
 !-----------------------------------------------------------------------------!

 ENERGY| Total FORCE_EVAL ( QS ) energy (a.u.):               -0.898989598470010


 MD_ENERGIES| Initialization proceeding


 ******************************** GO CP2K GO! **********************************
 INITIAL POTENTIAL ENERGY[hartree]     =                     -0.898989598470E+00
 INITIAL KINETIC ENERGY[hartree]       =                      0.950044602986E-03
 INITIAL TEMPERATURE[K]                =                                 100.000
 INITIAL VOLUME[bohr^3]                =                      0.843541822886E+03
 INITIAL CELL LNTHS[bohr]   =      0.9448631E+01   0.9448631E+01   0.9448631E+01
 INITIAL CELL ANGLS[deg]    =      0.9000000E+02   0.9000000E+02   0.9000000E+02
 ******************************** GO CP2K GO! **********************************

 Number of electrons:                                                          2
 Number of occupied orbitals:                                                  1
 Number of molecular orbitals:                                                 1

 Number of orbital functions:                                                 10
 Number of independent orbital functions:                                     10

 Parameters for the always stable predictor-corrector (ASPC) method:

  ASPC order: 0

  B(1) =   1.000000

 Extrapolation method: ASPC


 SCF WAVEFUNCTION OPTIMIZATION

  Step     Update method      Time    Convergence         Total energy    Change
  ------------------------------------------------------------------------------
     1 Broy./Diag. 0.40E+00    0.0     0.01055067        -0.9118037844 -9.12E-01
     2 Broy./Diag. 0.40E+00    0.0     0.04037632        -0.9125211087 -7.17E-04
     3 Broy./Diag. 0.40E+00    0.0     0.03441765        -0.9123853903  1.36E-04
     4 Broy./Diag. 0.40E+00    0.0     0.00034048        -0.9121992627  1.86E-04
     5 Broy./Diag. 0.40E+00    0.0     0.00013380        -0.9118439160  3.55E-04
     6 Broy./Diag. 0.40E+00    0.0     0.00000638        -0.9118073133  3.66E-05
     7 Broy./Diag. 0.40E+00    0.0     0.00000683        -0.9118065683  7.45E-07
     8 Broy./Diag. 0.40E+00    0.0     0.00000023        -0.9118045038  2.06E-06
     9 Broy./Diag. 0.40E+00    0.0     0.00000010        -0.9118043333  1.70E-07

  *** SCF run converged in     9 steps ***


  Electronic density on regular grids:         -1.9999992950        0.0000007050
  Core density on regular grids:                1.9998744292       -0.0001255708
  Total charge density on r-space grids:       -0.0001248658
  Total charge density g-space grids:          -0.0001248658

  Overlap energy of the core charge distribution:               0.00000000000000
  Self energy of the core charge distribution:                 -2.82094791773878
  Core Hamiltonian energy:                                      0.73483026279116
  Hartree energy:                                               1.64535586026195
  Exchange-correlation energy:                                 -0.47104253862252

  Total energy:                                                -0.91180433330819

 !-----------------------------------------------------------------------------!
                     Mulliken Population Analysis

 #  Atom  Element  Kind  Atomic population                           Net charge
       1     H        1          1.000080                             -0.000080
       2     H        1          0.999920                              0.000080
 # Total charge                              2.000000                 -0.000000

 !-----------------------------------------------------------------------------!

 !-----------------------------------------------------------------------------!
                           Hirshfeld Charges

  #Atom  Element  Kind  Ref Charge     Population                    Net charge
      1       H      1       1.000          0.769                         0.231
      2       H      1       1.000          0.769                         0.231

  Total Charge                                                            0.462
 !-----------------------------------------------------------------------------!

 ENERGY| Total FORCE_EVAL ( QS ) energy (a.u.):               -0.911804368850335


 Centre of mass motion (COM):                            x =        0.0002669763
                                                         y =        0.0016273251
                                                         z =        0.0006401665

 *******************************************************************************
 ENSEMBLE TYPE                =                                              NVT
 STEP NUMBER                  =                                                1
 TIME [fs]                    =                                         1.000000
 CONSERVED QUANTITY [hartree] =                              -0.898867685619E+00

                                              INSTANTANEOUS             AVERAGES
 CPU TIME [s]                 =                        0.12                 0.12
 ENERGY DRIFT PER ATOM [K]    =         -0.280751506226E+03   0.000000000000E+00
 POTENTIAL ENERGY[hartree]    =         -0.911804368850E+00  -0.911804368850E+00
 KINETIC ENERGY [hartree]     =          0.119779382800E-01   0.119779382800E-01
 TEMPERATURE [K]              =                    1260.776             1260.776
 *******************************************************************************


 Number of electrons:                                                          2
 Number of occupied orbitals:                                                  1
 Number of molecular orbitals:                                                 1

 Number of orbital functions:                                                 10
 Number of independent orbital functions:                                     10

 Parameters for the always stable predictor-corrector (ASPC) method:

  ASPC order: 0

  B(1) =   2.000000
  B(2) =  -1.000000

 Extrapolation method: ASPC


 SCF WAVEFUNCTION OPTIMIZATION

  Step     Update method      Time    Convergence         Total energy    Change
  ------------------------------------------------------------------------------
     1 Broy./Diag. 0.40E+00    0.0     0.03915097        -0.9090386449 -9.09E-01
     2 Broy./Diag. 0.40E+00    0.0     0.21519236        -0.9080112023  1.03E-03
     3 Broy./Diag. 0.40E+00    0.0     0.18617710        -0.9068172128  1.19E-03
     4 Broy./Diag. 0.40E+00    0.0     0.00108226        -0.9085534537 -1.74E-03
     5 Broy./Diag. 0.40E+00    0.0     0.00014822        -0.9089977673 -4.44E-04
     6 Broy./Diag. 0.40E+00    0.0     0.00003812        -0.9090508501 -5.31E-05
     7 Broy./Diag. 0.40E+00    0.0     0.00001127        -0.9090393889  1.15E-05
     8 Broy./Diag. 0.40E+00    0.0     0.00000113        -0.9090410015 -1.61E-06
     9 Broy./Diag. 0.40E+00    0.0     0.00000081        -0.9090414739 -4.72E-07
    10 Broy./Diag. 0.40E+00    0.0     0.00000015        -0.9090412685  2.05E-07
    11 Broy./Diag. 0.40E+00    0.0     0.00000003        -0.9090412003  6.82E-08

  *** SCF run converged in    11 steps ***


  Electronic density on regular grids:         -1.9999995075        0.0000004925
  Core density on regular grids:                1.9999104257       -0.0000895743
  Total charge density on r-space grids:       -0.0000890818
  Total charge density g-space grids:          -0.0000890818

  Overlap energy of the core charge distribution:               0.00000000000000
  Self energy of the core charge distribution:                 -2.82094791773878
  Core Hamiltonian energy:                                      0.73924181988003
  Hartree energy:                                               1.64442197752967
  Exchange-correlation energy:                                 -0.47175707994598

  Total energy:                                                -0.90904120027506

 !-----------------------------------------------------------------------------!
                     Mulliken Population Analysis

 #  Atom  Element  Kind  Atomic population                           Net charge
       1     H        1          1.000780                             -0.000780
       2     H        1          0.999220                              0.000780
 # Total charge                              2.000000                  0.000000

 !-----------------------------------------------------------------------------!

 !-----------------------------------------------------------------------------!
                           Hirshfeld Charges

  #Atom  Element  Kind  Ref Charge     Population                    Net charge
      1       H      1       1.000          0.773                         0.227
      2       H      1       1.000          0.770                         0.230

  Total Charge                                                            0.457
 !-----------------------------------------------------------------------------!

 ENERGY| Total FORCE_EVAL ( QS ) energy (a.u.):               -0.909041191537281


 Centre of mass motion (COM):                            x =        0.0005537159
                                                         y =        0.0011321453
                                                         z =        0.0020310714

 *******************************************************************************
 ENSEMBLE TYPE                =                                              NVT
 STEP NUMBER                  =                                                2
 TIME [fs]                    =                                         2.000000
 CONSERVED QUANTITY [hartree] =                              -0.891366717120E+00

                                              INSTANTANEOUS             AVERAGES
 CPU TIME [s]                 =                        0.06                 0.09
 ENERGY DRIFT PER ATOM [K]    =          0.903556337230E+03   0.451778168615E+03
 POTENTIAL ENERGY[hartree]    =         -0.909041191537E+00  -0.910422780194E+00
 KINETIC ENERGY [hartree]     =          0.166994521524E-01   0.143386952162E-01
 TEMPERATURE [K]              =                    1757.755             1509.265
 *******************************************************************************


 Number of electrons:                                                          2
 Number of occupied orbitals:                                                  1
 Number of molecular orbitals:                                                 1

 Number of orbital functions:                                                 10
 Number of independent orbital functions:                                     10

 Parameters for the always stable predictor-corrector (ASPC) method:

  ASPC order: 1

  B(1) =   2.500000
  B(2) =  -2.000000
  B(3) =   0.500000

 Extrapolation method: ASPC


 SCF WAVEFUNCTION OPTIMIZATION

  Step     Update method      Time    Convergence         Total energy    Change
  ------------------------------------------------------------------------------
     1 Broy./Diag. 0.40E+00    0.0     0.08564826        -0.9100905934 -9.10E-01
     2 Broy./Diag. 0.40E+00    0.0     0.51584954        -0.9105363714 -4.46E-04
     3 Broy./Diag. 0.40E+00    0.0     0.44020189        -0.9024561808  8.08E-03
     4 Broy./Diag. 0.40E+00    0.0     0.00282567        -0.9107997925 -8.34E-03
     5 Broy./Diag. 0.40E+00    0.0     0.00092539        -0.9101965177  6.03E-04
     6 Broy./Diag. 0.40E+00    0.0     0.00043516        -0.9100795632  1.17E-04
     7 Broy./Diag. 0.40E+00    0.0     0.00007975        -0.9100978597 -1.83E-05
     8 Broy./Diag. 0.40E+00    0.0     0.00002949        -0.9100990311 -1.17E-06
     9 Broy./Diag. 0.40E+00    0.0     0.00000345        -0.9100975430  1.49E-06
    10 Broy./Diag. 0.40E+00    0.0     0.00000269        -0.9100972248  3.18E-07
    11 Broy./Diag. 0.40E+00    0.0     0.00000050        -0.9100974148 -1.90E-07
    12 Broy./Diag. 0.40E+00    0.0     0.00000005        -0.9100974683 -5.35E-08

  *** SCF run converged in    12 steps ***


  Electronic density on regular grids:         -1.9999991321        0.0000008679
  Core density on regular grids:                1.9998461755       -0.0001538245
  Total charge density on r-space grids:       -0.0001529566
  Total charge density g-space grids:          -0.0001529566

  Overlap energy of the core charge distribution:               0.00000000000000
  Self energy of the core charge distribution:                 -2.82094791773878
  Core Hamiltonian energy:                                      0.74065735861395
  Hartree energy:                                               1.64217752802756
  Exchange-correlation energy:                                 -0.47198443716446

  Total energy:                                                -0.91009746826173

 !-----------------------------------------------------------------------------!
                     Mulliken Population Analysis

 #  Atom  Element  Kind  Atomic population                           Net charge
       1     H        1          0.999807                              0.000193
       2     H        1          1.000193                             -0.000193
 # Total charge                              2.000000                  0.000000

 !-----------------------------------------------------------------------------!

 !-----------------------------------------------------------------------------!
                           Hirshfeld Charges

  #Atom  Element  Kind  Ref Charge     Population                    Net charge
      1       H      1       1.000          0.770                         0.230
      2       H      1       1.000          0.772                         0.228

  Total Charge                                                            0.458
 !-----------------------------------------------------------------------------!

 ENERGY| Total FORCE_EVAL ( QS ) energy (a.u.):               -0.910097471961101


 Centre of mass motion (COM):                            x =        0.0003447166
                                                         y =       -0.0003056129
                                                         z =        0.0029362768

 *******************************************************************************
 ENSEMBLE TYPE                =                                              NVT
 STEP NUMBER                  =                                                3
 TIME [fs]                    =                                         3.000000
 CONSERVED QUANTITY [hartree] =                              -0.889513393581E+00

                                              INSTANTANEOUS             AVERAGES
 CPU TIME [s]                 =                        0.07                 0.08
 ENERGY DRIFT PER ATOM [K]    =          0.119617263110E+04   0.699909656111E+03
 POTENTIAL ENERGY[hartree]    =         -0.910097471961E+00  -0.910314344116E+00
 KINETIC ENERGY [hartree]     =          0.195957487567E-01   0.160910463964E-01
 TEMPERATURE [K]              =                    2062.614             1693.715
 *******************************************************************************


 Number of electrons:                                                          2
 Number of occupied orbitals:                                                  1
 Number of molecular orbitals:                                                 1

 Number of orbital functions:                                                 10
 Number of independent orbital functions:                                     10

 Parameters for the always stable predictor-corrector (ASPC) method:

  ASPC order: 2

  B(1) =   2.800000
  B(2) =  -2.800000
  B(3) =   1.200000
  B(4) =  -0.200000

 Extrapolation method: ASPC


 SCF WAVEFUNCTION OPTIMIZATION

  Step     Update method      Time    Convergence         Total energy    Change
  ------------------------------------------------------------------------------
     1 Broy./Diag. 0.40E+00    0.0     0.13941007        -0.9039315290 -9.04E-01
     2 Broy./Diag. 0.40E+00    0.0     0.74471893        -0.9025217767  1.41E-03
     3 Broy./Diag. 0.40E+00    0.0     0.61220815        -0.8865214972  1.60E-02
     4 Broy./Diag. 0.40E+00    0.0     0.01826888        -0.9042463513 -1.77E-02
     5 Broy./Diag. 0.40E+00    0.0     0.00424808        -0.9041163443  1.30E-04
     6 Broy./Diag. 0.40E+00    0.0     0.00144195        -0.9039757257  1.41E-04
     7 Broy./Diag. 0.40E+00    0.0     0.00020377        -0.9039390352  3.67E-05
     8 Broy./Diag. 0.40E+00    0.0     0.00005177        -0.9039409820 -1.95E-06
     9 Broy./Diag. 0.40E+00    0.0     0.00003334        -0.9039466040 -5.62E-06
    10 Broy./Diag. 0.40E+00    0.0     0.00000550        -0.9039463183  2.86E-07
    11 Broy./Diag. 0.40E+00    0.0     0.00000045        -0.9039458196  4.99E-07
    12 Broy./Diag. 0.40E+00    0.0     0.00000006        -0.9039458753 -5.57E-08

  *** SCF run converged in    12 steps ***


  Electronic density on regular grids:         -2.0000008364       -0.0000008364
  Core density on regular grids:                2.0001466622        0.0001466622
  Total charge density on r-space grids:        0.0001458258
  Total charge density g-space grids:           0.0001458258

  Overlap energy of the core charge distribution:               0.00000000000000
  Self energy of the core charge distribution:                 -2.82094791773878
  Core Hamiltonian energy:                                      0.73827493056593
  Hartree energy:                                               1.65036253925014
  Exchange-correlation energy:                                 -0.47163542736863

  Total energy:                                                -0.90394587529135

 !-----------------------------------------------------------------------------!
                     Mulliken Population Analysis

 #  Atom  Element  Kind  Atomic population                           Net charge
       1     H        1          1.000940                             -0.000940
       2     H        1          0.999060                              0.000940
 # Total charge                              2.000000                 -0.000000

 !-----------------------------------------------------------------------------!

 !-----------------------------------------------------------------------------!
                           Hirshfeld Charges

  #Atom  Element  Kind  Ref Charge     Population                    Net charge
      1       H      1       1.000          0.773                         0.227
      2       H      1       1.000          0.769                         0.231

  Total Charge                                                            0.459
 !-----------------------------------------------------------------------------!

 ENERGY| Total FORCE_EVAL ( QS ) energy (a.u.):               -0.903945915566961


 Centre of mass motion (COM):                            x =       -0.0004825717
                                                         y =       -0.0005801762
                                                         z =        0.0030760557

 *******************************************************************************
 ENSEMBLE TYPE                =                                              NVT
 STEP NUMBER                  =                                                4
 TIME [fs]                    =                                         4.000000
 CONSERVED QUANTITY [hartree] =                              -0.878236202687E+00

                                              INSTANTANEOUS             AVERAGES
 CPU TIME [s]                 =                        0.08                 0.08
 ENERGY DRIFT PER ATOM [K]    =          0.297669812302E+04   0.126910677284E+04
 POTENTIAL ENERGY[hartree]    =         -0.903945915567E+00  -0.908722236979E+00
 KINETIC ENERGY [hartree]     =          0.247078298484E-01   0.182452422594E-01
 TEMPERATURE [K]              =                    2600.702             1920.462
 *******************************************************************************


 Number of electrons:                                                          2
 Number of occupied orbitals:                                                  1
 Number of molecular orbitals:                                                 1

 Number of orbital functions:                                                 10
 Number of independent orbital functions:                                     10

 Parameters for the always stable predictor-corrector (ASPC) method:

  ASPC order: 3

  B(1) =   3.000000
  B(2) =  -3.428571
  B(3) =   1.928571
  B(4) =  -0.571429
  B(5) =   0.071429

 Extrapolation method: ASPC


 SCF WAVEFUNCTION OPTIMIZATION

  Step     Update method      Time    Convergence         Total energy    Change
  ------------------------------------------------------------------------------
     1 Broy./Diag. 0.40E+00    0.0     0.18657278        -0.9270146032 -9.27E-01
     2 Broy./Diag. 0.40E+00    0.0     0.89386078        -0.9276869184 -6.72E-04
     3 Broy./Diag. 0.40E+00    0.0     0.70571277        -0.9036399893  2.40E-02
     4 Broy./Diag. 0.40E+00    0.0     0.04210914        -0.9290824474 -2.54E-02
     5 Broy./Diag. 0.40E+00    0.0     0.01576285        -0.9281651414  9.17E-04
     6 Broy./Diag. 0.40E+00    0.0     0.00680461        -0.9272991407  8.66E-04
     7 Broy./Diag. 0.40E+00    0.0     0.00033208        -0.9270747257  2.24E-04
     8 Broy./Diag. 0.40E+00    0.0     0.00032154        -0.9270311477  4.36E-05
     9 Broy./Diag. 0.40E+00    0.0     0.00019331        -0.9270493694 -1.82E-05
    10 Broy./Diag. 0.40E+00    0.0     0.00003119        -0.9270477615  1.61E-06
    11 Broy./Diag. 0.40E+00    0.0     0.00000590        -0.9270468710  8.91E-07
    12 Broy./Diag. 0.40E+00    0.0     0.00000136        -0.9270466988  1.72E-07
    13 Broy./Diag. 0.40E+00    0.0     0.00000018        -0.9270467782 -7.95E-08
    14 Broy./Diag. 0.40E+00    0.0     0.00000002        -0.9270468056 -2.73E-08

  *** SCF run converged in    14 steps ***


  Electronic density on regular grids:         -1.9999956954        0.0000043046
  Core density on regular grids:                1.9992251829       -0.0007748171
  Total charge density on r-space grids:       -0.0007705125
  Total charge density g-space grids:          -0.0007705125

  Overlap energy of the core charge distribution:               0.00000000000000
  Self energy of the core charge distribution:                 -2.82094791773878
  Core Hamiltonian energy:                                      0.73407242073649
  Hartree energy:                                               1.63062547202458
  Exchange-correlation energy:                                 -0.47079678059829

  Total energy:                                                -0.92704680557599

 !-----------------------------------------------------------------------------!
                     Mulliken Population Analysis

 #  Atom  Element  Kind  Atomic population                           Net charge
       1     H        1          0.999880                              0.000120
       2     H        1          1.000120                             -0.000120
 # Total charge                              2.000000                 -0.000000

 !-----------------------------------------------------------------------------!

 !-----------------------------------------------------------------------------!
                           Hirshfeld Charges

  #Atom  Element  Kind  Ref Charge     Population                    Net charge
      1       H      1       1.000          0.769                         0.231
      2       H      1       1.000          0.769                         0.231

  Total Charge                                                            0.462
 !-----------------------------------------------------------------------------!

 ENERGY| Total FORCE_EVAL ( QS ) energy (a.u.):               -0.927046804638921


 Centre of mass motion (COM):                            x =       -0.0011331917
                                                         y =       -0.0009959280
                                                         z =        0.0033618104

 *******************************************************************************
 ENSEMBLE TYPE                =                                              NVT
 STEP NUMBER                  =                                                5
 TIME [fs]                    =                                         5.000000
 CONSERVED QUANTITY [hartree] =                              -0.893425792136E+00

                                              INSTANTANEOUS             AVERAGES
 CPU TIME [s]                 =                        0.10                 0.09
 ENERGY DRIFT PER ATOM [K]    =          0.578454493002E+03   0.113097631687E+04
 POTENTIAL ENERGY[hartree]    =         -0.927046804639E+00  -0.912387150511E+00
 KINETIC ENERGY [hartree]     =          0.326017541272E-01   0.211165446329E-01
 TEMPERATURE [K]              =                    3431.602             2222.690
 *******************************************************************************


 Number of electrons:                                                          2
 Number of occupied orbitals:                                                  1
 Number of molecular orbitals:                                                 1

 Number of orbital functions:                                                 10
 Number of independent orbital functions:                                     10

 Parameters for the always stable predictor-corrector (ASPC) method:

  ASPC order: 3

  B(1) =   3.000000
  B(2) =  -3.428571
  B(3) =   1.928571
  B(4) =  -0.571429
  B(5) =   0.071429

 Extrapolation method: ASPC


 SCF WAVEFUNCTION OPTIMIZATION

  Step     Update method      Time    Convergence         Total energy    Change
  ------------------------------------------------------------------------------
     1 Broy./Diag. 0.40E+00    0.0     0.19018217        -0.9030081233 -9.03E-01
     2 Broy./Diag. 0.40E+00    0.0     0.82439070        -0.8974482131  5.56E-03
     3 Broy./Diag. 0.40E+00    0.0     0.65899260        -0.8778239498  1.96E-02
     4 Broy./Diag. 0.40E+00    0.0     0.02898996        -0.9014174330 -2.36E-02
     5 Broy./Diag. 0.40E+00    0.0     0.00752253        -0.9021823857 -7.65E-04
     6 Broy./Diag. 0.40E+00    0.0     0.00263625        -0.9028626693 -6.80E-04
     7 Broy./Diag. 0.40E+00    0.0     0.00097779        -0.9030638315 -2.01E-04
     8 Broy./Diag. 0.40E+00    0.0     0.00024341        -0.9030585821  5.25E-06
     9 Broy./Diag. 0.40E+00    0.0     0.00001044        -0.9030494410  9.14E-06
    10 Broy./Diag. 0.40E+00    0.0     0.00001516        -0.9030507056 -1.26E-06
    11 Broy./Diag. 0.40E+00    0.0     0.00000757        -0.9030525750 -1.87E-06
    12 Broy./Diag. 0.40E+00    0.0     0.00000094        -0.9030525102  6.48E-08
    13 Broy./Diag. 0.40E+00    0.0     0.00000018        -0.9030524192  9.10E-08
    14 Broy./Diag. 0.40E+00    0.0     7.4830E-09        -0.9030524052  1.39E-08

  *** SCF run converged in    14 steps ***


  Electronic density on regular grids:         -2.0000014947       -0.0000014947
  Core density on regular grids:                2.0002674637        0.0002674637
  Total charge density on r-space grids:        0.0002659689
  Total charge density g-space grids:           0.0002659689

  Overlap energy of the core charge distribution:               0.00000000000000
  Self energy of the core charge distribution:                 -2.82094791773878
  Core Hamiltonian energy:                                      0.73375299997391
  Hartree energy:                                               1.65510005634976
  Exchange-correlation energy:                                 -0.47095754381746

  Total energy:                                                -0.90305240523257

 !-----------------------------------------------------------------------------!
                     Mulliken Population Analysis

 #  Atom  Element  Kind  Atomic population                           Net charge
       1     H        1          1.000417                             -0.000417
       2     H        1          0.999583                              0.000417
 # Total charge                              2.000000                  0.000000

 !-----------------------------------------------------------------------------!

 !-----------------------------------------------------------------------------!
                           Hirshfeld Charges

  #Atom  Element  Kind  Ref Charge     Population                    Net charge
      1       H      1       1.000          0.770                         0.230
      2       H      1       1.000          0.768                         0.232

  Total Charge                                                            0.461
 !-----------------------------------------------------------------------------!

 ENERGY| Total FORCE_EVAL ( QS ) energy (a.u.):               -0.903052407003096


 Centre of mass motion (COM):                            x =        0.0000590997
                                                         y =       -0.0016099207
                                                         z =        0.0032709228

 *******************************************************************************
 ENSEMBLE TYPE                =                                              NVT
 STEP NUMBER                  =                                                6
 TIME [fs]                    =                                         6.000000
 CONSERVED QUANTITY [hartree] =                              -0.857953889349E+00

                                              INSTANTANEOUS             AVERAGES
 CPU TIME [s]                 =                        0.08                 0.08
 ENERGY DRIFT PER ATOM [K]    =          0.617901829949E+04   0.197231664731E+04
 POTENTIAL ENERGY[hartree]    =         -0.903052407003E+00  -0.910831359926E+00
 KINETIC ENERGY [hartree]     =          0.440588138100E-01   0.249402561624E-01
 TEMPERATURE [K]              =                    4637.552             2625.167
 *******************************************************************************


 Number of electrons:                                                          2
 Number of occupied orbitals:                                                  1
 Number of molecular orbitals:                                                 1

 Number of orbital functions:                                                 10
 Number of independent orbital functions:                                     10

 Parameters for the always stable predictor-corrector (ASPC) method:

  ASPC order: 3

  B(1) =   3.000000
  B(2) =  -3.428571
  B(3) =   1.928571
  B(4) =  -0.571429
  B(5) =   0.071429

 Extrapolation method: ASPC


 SCF WAVEFUNCTION OPTIMIZATION

  Step     Update method      Time    Convergence         Total energy    Change
  ------------------------------------------------------------------------------
     1 Broy./Diag. 0.40E+00    0.0     0.12438839        -0.9160442107 -9.16E-01
     2 Broy./Diag. 0.40E+00    0.0     0.49957438        -0.9212971456 -5.25E-03
     3 Broy./Diag. 0.40E+00    0.0     0.41250395        -0.9123679495  8.93E-03
     4 Broy./Diag. 0.40E+00    0.0     0.00345655        -0.9195334176 -7.17E-03
     5 Broy./Diag. 0.40E+00    0.0     0.00190579        -0.9164992296  3.03E-03
     6 Broy./Diag. 0.40E+00    0.0     0.00048518        -0.9160977865  4.01E-04
     7 Broy./Diag. 0.40E+00    0.0     0.00016728        -0.9161076280 -9.84E-06
     8 Broy./Diag. 0.40E+00    0.0     0.00004605        -0.9160869397  2.07E-05
     9 Broy./Diag. 0.40E+00    0.0     0.00000864        -0.9160848371  2.10E-06
    10 Broy./Diag. 0.40E+00    0.0     0.00000303        -0.9160841422  6.95E-07
    11 Broy./Diag. 0.40E+00    0.0     0.00000076        -0.9160843418 -2.00E-07
    12 Broy./Diag. 0.40E+00    0.0     0.00000011        -0.9160843615 -1.97E-08
    13 Broy./Diag. 0.40E+00    0.0     6.2223E-09        -0.9160843559  5.58E-09

  *** SCF run converged in    13 steps ***


  Electronic density on regular grids:         -1.9999988112        0.0000011888
  Core density on regular grids:                1.9997848525       -0.0002151475
  Total charge density on r-space grids:       -0.0002139586
  Total charge density g-space grids:          -0.0002139586

  Overlap energy of the core charge distribution:               0.00000000000000
  Self energy of the core charge distribution:                 -2.82094791773878
  Core Hamiltonian energy:                                      0.72939371658401
  Hartree energy:                                               1.64567063065797
  Exchange-correlation energy:                                 -0.47020078539695

  Total energy:                                                -0.91608435589375

 !-----------------------------------------------------------------------------!
                     Mulliken Population Analysis

 #  Atom  Element  Kind  Atomic population                           Net charge
       1     H        1          1.000703                             -0.000703
       2     H        1          0.999297                              0.000703
 # Total charge                              2.000000                 -0.000000

 !-----------------------------------------------------------------------------!

 !-----------------------------------------------------------------------------!
                           Hirshfeld Charges

  #Atom  Element  Kind  Ref Charge     Population                    Net charge
      1       H      1       1.000          0.769                         0.231
      2       H      1       1.000          0.766                         0.234

  Total Charge                                                            0.465
 !-----------------------------------------------------------------------------!

 ENERGY| Total FORCE_EVAL ( QS ) energy (a.u.):               -0.916084356862164


 Centre of mass motion (COM):                            x =        0.0014193637
                                                         y =       -0.0023535880
                                                         z =        0.0024856909

 *******************************************************************************
 ENSEMBLE TYPE                =                                              NVT
 STEP NUMBER                  =                                                7
 TIME [fs]                    =                                         7.000000
 CONSERVED QUANTITY [hartree] =                              -0.852285695832E+00

                                              INSTANTANEOUS             AVERAGES
 CPU TIME [s]                 =                        0.08                 0.08
 ENERGY DRIFT PER ATOM [K]    =          0.707395420558E+04   0.270112201277E+04
 POTENTIAL ENERGY[hartree]    =         -0.916084356862E+00  -0.911581788060E+00
 KINETIC ENERGY [hartree]     =          0.627195662610E-01   0.303373004622E-01
 TEMPERATURE [K]              =                    6601.750             3193.250
 *******************************************************************************


 Number of electrons:                                                          2
 Number of occupied orbitals:                                                  1
 Number of molecular orbitals:                                                 1

 Number of orbital functions:                                                 10
 Number of independent orbital functions:                                     10

 Parameters for the always stable predictor-corrector (ASPC) method:

  ASPC order: 3

  B(1) =   3.000000
  B(2) =  -3.428571
  B(3) =   1.928571
  B(4) =  -0.571429
  B(5) =   0.071429

 Extrapolation method: ASPC


 SCF WAVEFUNCTION OPTIMIZATION

  Step     Update method      Time    Convergence         Total energy    Change
  ------------------------------------------------------------------------------
     1 Broy./Diag. 0.40E+00    0.0     0.05665145        -0.9167705464 -9.17E-01
     2 Broy./Diag. 0.40E+00    0.0     0.14550834        -0.9121205113  4.65E-03
     3 Broy./Diag. 0.40E+00    0.0     0.11888626        -0.9121245285 -4.02E-06
     4 Broy./Diag. 0.40E+00    0.0     0.00125154        -0.9145234709 -2.40E-03
     5 Broy./Diag. 0.40E+00    0.0     0.00073141        -0.9165775395 -2.05E-03
     6 Broy./Diag. 0.40E+00    0.0     0.00004055        -0.9167822376 -2.05E-04
     7 Broy./Diag. 0.40E+00    0.0     0.00003383        -0.9167829247 -6.87E-07
     8 Broy./Diag. 0.40E+00    0.0     0.00000084        -0.9167961796 -1.33E-05
     9 Broy./Diag. 0.40E+00    0.0     0.00000011        -0.9167971371 -9.58E-07
    10 Broy./Diag. 0.40E+00    0.0     0.00000018        -0.9167968837  2.53E-07
    11 Broy./Diag. 0.40E+00    0.0     0.00000002        -0.9167968217  6.20E-08

  *** SCF run converged in    11 steps ***


  Electronic density on regular grids:         -1.9999997884        0.0000002116
  Core density on regular grids:                1.9999582021       -0.0000417979
  Total charge density on r-space grids:       -0.0000415863
  Total charge density g-space grids:          -0.0000415863

  Overlap energy of the core charge distribution:               0.00000000000000
  Self energy of the core charge distribution:                 -2.82094791773878
  Core Hamiltonian energy:                                      0.71890800251960
  Hartree energy:                                               1.65414230488264
  Exchange-correlation energy:                                 -0.46889921140202

  Total energy:                                                -0.91679682173856

 !-----------------------------------------------------------------------------!
                     Mulliken Population Analysis

 #  Atom  Element  Kind  Atomic population                           Net charge
       1     H        1          1.001073                             -0.001073
       2     H        1          0.998927                              0.001073
 # Total charge                              2.000000                 -0.000000

 !-----------------------------------------------------------------------------!

 !-----------------------------------------------------------------------------!
                           Hirshfeld Charges

  #Atom  Element  Kind  Ref Charge     Population                    Net charge
      1       H      1       1.000          0.766                         0.234
      2       H      1       1.000          0.763                         0.237

  Total Charge                                                            0.471
 !-----------------------------------------------------------------------------!

 ENERGY| Total FORCE_EVAL ( QS ) energy (a.u.):               -0.916796820874138


 Centre of mass motion (COM):                            x =        0.0003663347
                                                         y =       -0.0025729871
                                                         z =        0.0022587345

 *******************************************************************************
 ENSEMBLE TYPE                =                                              NVT
 STEP NUMBER                  =                                                8
 TIME [fs]                    =                                         8.000000
 CONSERVED QUANTITY [hartree] =                              -0.840551752222E+00

                                              INSTANTANEOUS             AVERAGES
 CPU TIME [s]                 =                        0.07                 0.08
 ENERGY DRIFT PER ATOM [K]    =          0.892659516153E+04   0.347930615637E+04
 POTENTIAL ENERGY[hartree]    =         -0.916796820874E+00  -0.912233667162E+00
 KINETIC ENERGY [hartree]     =          0.750906598998E-01   0.359314703919E-01
 TEMPERATURE [K]              =                    7903.909             3782.082
 *******************************************************************************


 Number of electrons:                                                          2
 Number of occupied orbitals:                                                  1
 Number of molecular orbitals:                                                 1

 Number of orbital functions:                                                 10
 Number of independent orbital functions:                                     10

 Parameters for the always stable predictor-corrector (ASPC) method:

  ASPC order: 3

  B(1) =   3.000000
  B(2) =  -3.428571
  B(3) =   1.928571
  B(4) =  -0.571429
  B(5) =   0.071429

 Extrapolation method: ASPC


 SCF WAVEFUNCTION OPTIMIZATION

  Step     Update method      Time    Convergence         Total energy    Change
  ------------------------------------------------------------------------------
     1 Broy./Diag. 0.40E+00    0.0     0.03096939        -0.9266766908 -9.27E-01
     2 Broy./Diag. 0.40E+00    0.0     0.07994845        -0.9283734178 -1.70E-03
     3 Broy./Diag. 0.40E+00    0.0     0.06132246        -0.9278646359  5.09E-04
     4 Broy./Diag. 0.40E+00    0.0     0.00048210        -0.9275778465  2.87E-04
     5 Broy./Diag. 0.40E+00    0.0     0.00029778        -0.9267537951  8.24E-04
     6 Broy./Diag. 0.40E+00    0.0     0.00001268        -0.9266836256  7.02E-05
     7 Broy./Diag. 0.40E+00    0.0     0.00001196        -0.9266895481 -5.92E-06
     8 Broy./Diag. 0.40E+00    0.0     0.00000091        -0.9266834351  6.11E-06
     9 Broy./Diag. 0.40E+00    0.0     0.00000016        -0.9266826099  8.25E-07
    10 Broy./Diag. 0.40E+00    0.0     0.00000004        -0.9266827060 -9.61E-08

  *** SCF run converged in    10 steps ***


  Electronic density on regular grids:         -1.9999989898        0.0000010102
  Core density on regular grids:                1.9998127777       -0.0001872223
  Total charge density on r-space grids:       -0.0001862121
  Total charge density g-space grids:          -0.0001862121

  Overlap energy of the core charge distribution:               0.00000000000000
  Self energy of the core charge distribution:                 -2.82094791773878
  Core Hamiltonian energy:                                      0.70651455596515
  Hartree energy:                                               1.65558311478349
  Exchange-correlation energy:                                 -0.46783245900158

  Total energy:                                                -0.92668270599173

 !-----------------------------------------------------------------------------!
                     Mulliken Population Analysis

 #  Atom  Element  Kind  Atomic population                           Net charge
       1     H        1          1.000811                             -0.000811
       2     H        1          0.999189                              0.000811
 # Total charge                              2.000000                  0.000000

 !-----------------------------------------------------------------------------!

 !-----------------------------------------------------------------------------!
                           Hirshfeld Charges

  #Atom  Element  Kind  Ref Charge     Population                    Net charge
      1       H      1       1.000          0.763                         0.237
      2       H      1       1.000          0.760                         0.240

  Total Charge                                                            0.478
 !-----------------------------------------------------------------------------!

 ENERGY| Total FORCE_EVAL ( QS ) energy (a.u.):               -0.926682714557370


 Centre of mass motion (COM):                            x =       -0.0012907711
                                                         y =       -0.0018656447
                                                         z =        0.0027804347

 *******************************************************************************
 ENSEMBLE TYPE                =                                              NVT
 STEP NUMBER                  =                                                9
 TIME [fs]                    =                                         9.000000
 CONSERVED QUANTITY [hartree] =                              -0.872870507761E+00

                                              INSTANTANEOUS             AVERAGES
 CPU TIME [s]                 =                        0.07                 0.08
 ENERGY DRIFT PER ATOM [K]    =          0.382387333610E+04   0.351759139856E+04
 POTENTIAL ENERGY[hartree]    =         -0.926682714557E+00  -0.913839116872E+00
 KINETIC ENERGY [hartree]     =          0.525636776585E-01   0.377794934215E-01
 TEMPERATURE [K]              =                    5532.759             3976.602
 *******************************************************************************


 Number of electrons:                                                          2
 Number of occupied orbitals:                                                  1
 Number of molecular orbitals:                                                 1

 Number of orbital functions:                                                 10
 Number of independent orbital functions:                                     10

 Parameters for the always stable predictor-corrector (ASPC) method:

  ASPC order: 3

  B(1) =   3.000000
  B(2) =  -3.428571
  B(3) =   1.928571
  B(4) =  -0.571429
  B(5) =   0.071429

[...]

  #Atom  Element  Kind  Ref Charge     Population                    Net charge
      1       H      1       1.000          0.901                         0.099
      2       H      1       1.000          0.904                         0.096

  Total Charge                                                            0.195
 !-----------------------------------------------------------------------------!

 ENERGY| Total FORCE_EVAL ( QS ) energy (a.u.):               -1.135708597921801


 Centre of mass motion (COM):                            x =        0.0018642275
                                                         y =        0.0030429540
                                                         z =        0.0010959351

 *******************************************************************************
 ENSEMBLE TYPE                =                                              NVT
 STEP NUMBER                  =                                               99
 TIME [fs]                    =                                        99.000000
 CONSERVED QUANTITY [hartree] =                              -0.798511443193E+00

                                              INSTANTANEOUS             AVERAGES
 CPU TIME [s]                 =                        0.10                 0.07
 ENERGY DRIFT PER ATOM [K]    =          0.155642270522E+05   0.135504722624E+05
 POTENTIAL ENERGY[hartree]    =         -0.113570859792E+01  -0.100146047858E+01
 KINETIC ENERGY [hartree]     =          0.130712419413E+00   0.111801976165E+00
 TEMPERATURE [K]              =                   13758.556            11768.077
 *******************************************************************************


 Number of electrons:                                                          2
 Number of occupied orbitals:                                                  1
 Number of molecular orbitals:                                                 1

 Number of orbital functions:                                                 10
 Number of independent orbital functions:                                     10

 Parameters for the always stable predictor-corrector (ASPC) method:

  ASPC order: 3

  B(1) =   3.000000
  B(2) =  -3.428571
  B(3) =   1.928571
  B(4) =  -0.571429
  B(5) =   0.071429

 Extrapolation method: ASPC


 SCF WAVEFUNCTION OPTIMIZATION

  Step     Update method      Time    Convergence         Total energy    Change
  ------------------------------------------------------------------------------
     1 Broy./Diag. 0.40E+00    0.0     0.20301509        -1.0775262484 -1.08E+00
     2 Broy./Diag. 0.40E+00    0.0     0.02502746        -1.1260319926 -4.85E-02
     3 Broy./Diag. 0.40E+00    0.0     0.02640812        -1.0889390258  3.71E-02
     4 Broy./Diag. 0.40E+00    0.0     0.00047482        -1.0793754113  9.56E-03
     5 Broy./Diag. 0.40E+00    0.0     0.00055131        -1.0792284837  1.47E-04
     6 Broy./Diag. 0.40E+00    0.0     0.00007656        -1.0790071300  2.21E-04
     7 Broy./Diag. 0.40E+00    0.0     0.00003455        -1.0789729585  3.42E-05
     8 Broy./Diag. 0.40E+00    0.0     0.00000741        -1.0789668328  6.13E-06
     9 Broy./Diag. 0.40E+00    0.0     0.00000037        -1.0789669642 -1.31E-07
    10 Broy./Diag. 0.40E+00    0.0     0.00000088        -1.0789671146 -1.50E-07
    11 Broy./Diag. 0.40E+00    0.0     0.00000006        -1.0789671234 -8.83E-09

  *** SCF run converged in    11 steps ***


  Electronic density on regular grids:         -2.0000035440       -0.0000035440
  Core density on regular grids:                2.0003275709        0.0003275709
  Total charge density on r-space grids:        0.0003240269
  Total charge density g-space grids:           0.0003240269

  Overlap energy of the core charge distribution:               0.00025466067222
  Self energy of the core charge distribution:                 -2.82094791773878
  Core Hamiltonian energy:                                      1.13148648926732
  Hartree energy:                                               1.33095204292711
  Exchange-correlation energy:                                 -0.72071239853808

  Total energy:                                                -1.07896712341021

 !-----------------------------------------------------------------------------!
                     Mulliken Population Analysis

 #  Atom  Element  Kind  Atomic population                           Net charge
       1     H        1          1.000126                             -0.000126
       2     H        1          0.999874                              0.000126
 # Total charge                              2.000000                 -0.000000

 !-----------------------------------------------------------------------------!

 !-----------------------------------------------------------------------------!
                           Hirshfeld Charges

  #Atom  Element  Kind  Ref Charge     Population                    Net charge
      1       H      1       1.000          0.927                         0.073
      2       H      1       1.000          0.926                         0.074

  Total Charge                                                            0.147
 !-----------------------------------------------------------------------------!

 ENERGY| Total FORCE_EVAL ( QS ) energy (a.u.):               -1.078967114189100


 Centre of mass motion (COM):                            x =        0.0018634264
                                                         y =        0.0029220598
                                                         z =        0.0012677447

 *******************************************************************************
 ENSEMBLE TYPE                =                                              NVT
 STEP NUMBER                  =                                              100
 TIME [fs]                    =                                       100.000000
 CONSERVED QUANTITY [hartree] =                              -0.791402120148E+00

                                              INSTANTANEOUS             AVERAGES
 CPU TIME [s]                 =                        0.09                 0.07
 ENERGY DRIFT PER ATOM [K]    =          0.166866990430E+05   0.135818345302E+05
 POTENTIAL ENERGY[hartree]    =         -0.107896711419E+01  -0.100223554494E+01
 KINETIC ENERGY [hartree]     =          0.796310760327E-01   0.111480267163E+00
 TEMPERATURE [K]              =                    8381.825            11734.214
 *******************************************************************************


 -------------------------------------------------------------------------------
 -                                                                             -
 -                                DBCSR STATISTICS                             -
 -                                                                             -
 -------------------------------------------------------------------------------
 COUNTER                                    TOTAL       BLAS       SMM       ACC
 flops     5 x     1 x     5                78000     100.0%      0.0%      0.0%
 flops inhomo. stacks                      188100     100.0%      0.0%      0.0%
 flops total                       266.100000E+03     100.0%      0.0%      0.0%
 flops max/rank                    101.700000E+03     100.0%      0.0%      0.0%
 matmuls inhomo. stacks                      3762     100.0%      0.0%      0.0%
 matmuls total                               5322     100.0%      0.0%      0.0%
 number of processed stacks                  5322     100.0%      0.0%      0.0%
 average stack size                                     1.0       0.0       0.0
 marketing flops                   328.800000E+03
 -------------------------------------------------------------------------------
 # multiplications                           1644
 max memory usage/rank              68.251648E+06
 # max total images/rank                        1
 # max 3D layers                                1
 # MPI messages exchanged                   13152
 MPI messages size (bytes):
  total size                       543.840000E+03
  min size                           0.000000E+00
  max size                         200.000000E+00
  average size                      41.350365E+00
 MPI breakdown and total messages size (bytes):
             size <=      128               11592                   231840
       128 < size <=     8192                1560                   312000
      8192 < size <=    32768                   0                        0
     32768 < size <=   131072                   0                        0
    131072 < size <=  4194304                   0                        0
   4194304 < size <= 16777216                   0                        0
  16777216 < size                               0                        0
 -------------------------------------------------------------------------------

 MEMORY| Estimated peak process memory [MiB]                                  66

 -------------------------------------------------------------------------------
 ----                             MULTIGRID INFO                            ----
 -------------------------------------------------------------------------------
 count for grid        1:          10918          cutoff [a.u.]           50.00
 count for grid        2:           9947          cutoff [a.u.]           16.67
 count for grid        3:           5837          cutoff [a.u.]            5.56
 count for grid        4:              0          cutoff [a.u.]            1.85
 total gridlevel count  :          26702

 -------------------------------------------------------------------------------
 -                                                                             -
 -                         MESSAGE PASSING PERFORMANCE                         -
 -                                                                             -
 -------------------------------------------------------------------------------

 ROUTINE             CALLS      AVE VOLUME [Bytes]
 MP_Group             1549
 MP_Bcast             1347                 145950.
 MP_Allreduce        23798                     22.
 MP_Sync                 4
 MP_Alltoall         46624                  70348.
 MP_ISendRecv        28908                  22515.
 MP_Wait             81516
 MP_ISend            13152                     58.
 MP_IRecv            13152                     48.
 MP_Memory           59544
 -------------------------------------------------------------------------------


 -------------------------------------------------------------------------------
 -                                                                             -
 -                           R E F E R E N C E S                               -
 -                                                                             -
 -------------------------------------------------------------------------------
 
 CP2K version 6.1, the CP2K developers group (2018).
 CP2K is freely available from https://www.cp2k.org/ .

 Schuett, Ole; Messmer, Peter; Hutter, Juerg; VandeVondele, Joost. 
 Electronic Structure Calculations on Graphics Processing Units, John Wiley & Sons, Ltd, 173-190 (2016). 
 GPU-Accelerated Sparse Matrix-Matrix Multiplication for Linear Scaling Density Functional Theory.
 http://dx.doi.org/10.1002/9781118670712.ch8


 Borstnik, U; VandeVondele, J; Weber, V; Hutter, J. 
 PARALLEL COMPUTING, 40 (5-6), 47-58 (2014). 
 Sparse matrix multiplication: The distributed block-compressed sparse
 row library.
 http://dx.doi.org/10.1016/j.parco.2014.03.012


 Hutter, J; Iannuzzi, M; Schiffmann, F; VandeVondele, J. 
 WILEY INTERDISCIPLINARY REVIEWS-COMPUTATIONAL MOLECULAR SCIENCE, 4 (1), 15-25 (2014). 
 CP2K: atomistic simulations of condensed matter systems.
 http://dx.doi.org/10.1002/wcms.1159


 Krack, M. 
 THEORETICAL CHEMISTRY ACCOUNTS, 114 (1-3), 145-152 (2005). 
 Pseudopotentials for H to Kr optimized for gradient-corrected
 exchange-correlation functionals.
 http://dx.doi.org/10.1007/s00214-005-0655-y


 VandeVondele, J; Krack, M; Mohamed, F; Parrinello, M; Chassaing, T;
 Hutter, J. COMPUTER PHYSICS COMMUNICATIONS, 167 (2), 103-128 (2005). 
 QUICKSTEP: Fast and accurate density functional calculations using a
 mixed Gaussian and plane waves approach.
 http://dx.doi.org/10.1016/j.cpc.2004.12.014


 Frigo, M; Johnson, SG. 
 PROCEEDINGS OF THE IEEE, 93 (2), 216-231 (2005). 
 The design and implementation of FFTW3.
 http://dx.doi.org/10.1109/JPROC.2004.840301


 Kolafa, J. 
 JOURNAL OF COMPUTATIONAL CHEMISTRY, 25 (3), 335-342 (2004). 
 Time-reversible always stable predictor-corrector method for molecular dynamics of polarizable molecules.
 http://dx.doi.org/10.1002/jcc.10385


 Hartwigsen, C; Goedecker, S; Hutter, J. 
 PHYSICAL REVIEW B, 58 (7), 3641-3662 (1998). 
 Relativistic separable dual-space Gaussian pseudopotentials from H to Rn.
 http://dx.doi.org/10.1103/PhysRevB.58.3641


 Lippert, G; Hutter, J; Parrinello, M. 
 MOLECULAR PHYSICS, 92 (3), 477-487 (1997). 
 A hybrid Gaussian and plane wave density functional scheme.
 http://dx.doi.org/10.1080/002689797170220


 Goedecker, S; Teter, M; Hutter, J. 
 PHYSICAL REVIEW B, 54 (3), 1703-1710 (1996). 
 Separable dual-space Gaussian pseudopotentials.
 http://dx.doi.org/10.1103/PhysRevB.54.1703


 NOSE, S. JOURNAL OF CHEMICAL PHYSICS, 81 (1), 511-519 (1984). 
 A UNIFIED FORMULATION OF THE CONSTANT TEMPERATURE MOLECULAR-DYNAMICS
 METHODS.
 http://dx.doi.org/10.1063/1.447334


 NOSE, S. MOLECULAR PHYSICS, 52 (2), 255-268 (1984). 
 A MOLECULAR-DYNAMICS METHOD FOR SIMULATIONS IN THE CANONICAL ENSEMBLE.
 http://dx.doi.org/10.1080/00268978400101201


 -------------------------------------------------------------------------------
 -                                                                             -
 -                                T I M I N G                                  -
 -                                                                             -
 -------------------------------------------------------------------------------
 SUBROUTINE                       CALLS  ASD         SELF TIME        TOTAL TIME
                                MAXIMUM       AVERAGE  MAXIMUM  AVERAGE  MAXIMUM
 CP2K                                 1  1.0    0.002    0.003    6.859    6.859
 qs_mol_dyn_low                       1  2.0    0.003    0.003    6.833    6.834
 velocity_verlet                    100  3.0    0.006    0.006    6.716    6.743
 qs_forces                          101  4.0    0.003    0.003    6.698    6.699
 qs_energies                        101  5.0    0.003    0.003    6.450    6.451
 scf_env_do_scf                     101  6.0    0.004    0.005    5.718    5.722
 scf_env_do_scf_inner_loop         1053  7.0    0.054    0.145    5.713    5.716
 rebuild_ks_matrix                 1154  8.7    0.002    0.002    2.157    2.259
 qs_ks_build_kohn_sham_matrix      1154  9.7    0.066    0.073    2.155    2.257
 qs_ks_update_qs_env               1053  8.0    0.005    0.006    2.073    2.192
 pw_transfer                      14901 11.8    0.219    0.226    1.980    1.994
 fft_wrap_pw1pw2                  12593 12.8    0.028    0.030    1.716    1.731
 qs_rho_update_rho                 1154  8.1    0.003    0.003    1.574    1.578
 calculate_rho_elec                1154  9.1    0.280    0.370    1.571    1.575
 density_rs2pw                     1154 10.1    0.018    0.019    1.253    1.492
 qs_scf_new_mos                    1053  8.0    0.008    0.009    1.132    1.369
 fft_wrap_pw1pw2_50                5669 13.2    0.107    0.112    1.351    1.356
 sum_up_and_integrate              1154 10.7    0.015    0.017    1.187    1.291
 integrate_v_rspace                1154 11.7    0.296    0.403    1.172    1.275
 fft3d_ps                         12593 14.8    0.495    0.510    1.109    1.141
 rs_pw_transfer                    9636 12.3    0.030    0.031    0.772    1.014
 gspace_mixing                      952  8.0    0.026    0.026    0.908    0.909
 potential_pw2rs                   1154 12.7    0.018    0.019    0.840    0.844
 copy_dbcsr_to_fm                  1544  9.1    0.012    0.013    0.456    0.696
 mp_waitall_1                     81516 14.7    0.384    0.618    0.384    0.618
 broyden_mixing                     952  9.0    0.547    0.565    0.598    0.603
 rs_pw_transfer_RS2PW_50           1356 11.8    0.091    0.095    0.303    0.546
 mp_alltoall_z22v                 12593 16.8    0.480    0.544    0.480    0.544
 init_scf_run                       101  6.0    0.002    0.003    0.530    0.531
 cp_dbcsr_plus_fm_fm_t_native      1254  9.8    0.008    0.008    0.521    0.524
 dbcsr_multiply_generic            1644 10.9    0.037    0.038    0.502    0.509
 scf_env_initial_rho_setup          101  7.0    0.001    0.001    0.497    0.497
 calculate_dm_sparse               1153  9.0    0.002    0.002    0.477    0.481
 dbcsr_desymmetrize_deep           1544 10.1    0.017    0.017    0.191    0.428
 wfi_extrapolate                    101  8.0    0.004    0.006    0.401    0.401
 mp_alltoall_i22                   4833 11.6    0.158    0.384    0.158    0.384
 x_to_yz                           6722 16.1    0.057    0.059    0.322    0.341
 eigensolver                       1053  9.0    0.033    0.033    0.325    0.327
 dbcsr_complete_redistribute       3289 10.9    0.060    0.071    0.320    0.323
 pw_scatter_p                      6722 15.1    0.310    0.316    0.310    0.316
 yz_to_x                           5871 15.6    0.043    0.044    0.257    0.297
 qs_vxc_create                     1154 10.7    0.008    0.008    0.292    0.293
 xc_vxc_pw_create                  1154 11.7    0.034    0.035    0.284    0.285
 mp_sum_d                         10610 10.3    0.222    0.278    0.222    0.278
 xc_rho_set_and_dset_create        1154 12.7    0.016    0.017    0.224    0.227
 cp_fm_syevd                       1053 10.0    0.003    0.003    0.216    0.221
 qs_ks_update_qs_env_forces         101  5.0    0.000    0.000    0.206    0.218
 cp_fm_syevd_base                  1053 11.0    0.212    0.217    0.212    0.217
 fft_wrap_pw1pw2_20                2308 14.4    0.017    0.018    0.199    0.209
 make_m2s                          3288 11.9    0.016    0.020    0.202    0.206
 rs_pw_transfer_PW2RS_50           1356 14.1    0.121    0.127    0.196    0.200
 xc_functional_eval                1154 13.7    0.193    0.195    0.193    0.195
 pw_poisson_solve                  1154 10.7    0.080    0.082    0.188    0.189
 cp_dbcsr_sm_fm_multiply            390  9.0    0.002    0.002    0.184    0.186
 mp_sum_dm                         3071  6.5    0.126    0.176    0.126    0.176
 multiply_cannon                   1644 11.9    0.064    0.066    0.153    0.157
 make_images                       3288 12.9    0.024    0.026    0.146    0.149
 evaluate_core_matrix_traces       1154  8.7    0.003    0.003    0.117    0.147
 fft_wrap_pw1pw2_10                4616 14.4    0.013    0.014    0.138    0.146
 calculate_ptrace_kp               2308  9.7    0.002    0.003    0.114    0.144
 dbcsr_trace_a_b_d                 2309 10.7    0.005    0.006    0.112    0.142
 -------------------------------------------------------------------------------

 The number of warnings for this run is : 0
 
 -------------------------------------------------------------------------------
  **** **** ******  **  PROGRAM ENDED AT                 2022-05-22 21:13:36.418
 ***** ** ***  *** **   PROGRAM RAN ON                            nick-ubuntu-vm
 **    ****   ******    PROGRAM RAN BY                                      nick
 ***** **    ** ** **   PROGRAM PROCESS ID                                 87111
  **** **  *******  **  PROGRAM STOPPED IN /home/nick/Documents/gitlab/pymatgen/
                                           cp2k_simulations/h2/output
